
     Program PWSCF v.6.0 (svn rev. 13079) starts on 13Jan2017 at 10:25:46 

     This program is part of the open-source Quantum ESPRESSO suite
     for quantum simulation of materials; please cite
         "P. Giannozzi et al., J. Phys.:Condens. Matter 21 395502 (2009);
          URL http://www.quantum-espresso.org", 
     in publications or presentations arising from this work. More details at
     http://www.quantum-espresso.org/quote

     Parallel version (MPI), running on    24 processors
     R & G space division:  proc/nbgrp/npool/nimage =      24
     Waiting for input...
     Reading input from standard input
Warning: card &IONS ignored
Warning: card     ION_DYNAMICS='BFGS', ignored
Warning: card / ignored
Warning: card &CELL ignored
Warning: card     CELL_DYNAMICS = 'BFGS' ignored
Warning: card     PRESS = 0 ignored
Warning: card / ignored

     Current dimensions of program PWSCF are:
     Max number of different atomic species (ntypx) = 10
     Max number of k-points (npk) =  40000
     Max angular momentum in pseudopotentials (lmaxx) =  3
               file Ge.rel-pbesol-dn-kjpaw_psl.0.2.2.UPF: wavefunction(s)  4P 4P 3D renormalized
               file Te.rel-pbesol-dn-kjpaw_psl.0.2.2.UPF: wavefunction(s)  5S 5P 4D 4D renormalized

     Subspace diagonalization in iterative solution of the eigenvalue problem:
     one sub-group per band group will be used
     scalapack distributed-memory algorithm (size of sub-group:  3*  3 procs)


     Parallelization info
     --------------------
     sticks:   dense  smooth     PW     G-vecs:    dense   smooth      PW
     Min          46      20      6                 1004      297      56
     Max          47      21      7                 1007      301      60
     Sum        1109     499    163                24123     7181    1405



     bravais-lattice index     =            0
     lattice parameter (alat)  =       8.0899  a.u.
     unit-cell volume          =     360.3090 (a.u.)^3
     number of atoms/cell      =            2
     number of atomic types    =            2
     number of electrons       =        30.00
     number of Kohn-Sham states=           48
     kinetic-energy cutoff     =      28.0000  Ry
     charge density cutoff     =     250.0000  Ry
     convergence threshold     =      1.0E-08
     mixing beta               =       0.3000
     number of iterations used =            8  plain     mixing
     Exchange-correlation      =  SLA  PW   PSX  PSC ( 1  4 10  8 0 0)
     Non magnetic calculation with spin-orbit


     celldm(1)=   8.089908  celldm(2)=   0.000000  celldm(3)=   0.000000
     celldm(4)=   0.000000  celldm(5)=   0.000000  celldm(6)=   0.000000

     crystal axes: (cart. coord. in units of alat)
               a(1) = (  -0.826483   0.000000   0.562962 )  
               a(2) = (  -0.826483   0.487540  -0.281481 )  
               a(3) = (  -0.826483  -0.487540  -0.281481 )  

     reciprocal axes: (cart. coord. in units 2 pi/alat)
               b(1) = ( -0.403316  0.000000  1.184212 )  
               b(2) = ( -0.403316  1.025558 -0.592106 )  
               b(3) = ( -0.403316 -1.025558 -0.592106 )  


     PseudoPot. # 1 for Ge read from file:
     ./Ge.rel-pbesol-dn-kjpaw_psl.0.2.2.UPF
     MD5 check sum: 8befc74f4e76b3bdedbeeed072d6d0b3
     Pseudo is Projector augmented-wave + core cor, Zval = 14.0
     Generated using "atomic" code by A. Dal Corso  v.5.0.2 svn rev. 9415
     Shape of augmentation charge: PSQ
     Using radial grid of 1207 points, 10 beta functions with: 
                l(1) =   0
                l(2) =   0
                l(3) =   1
                l(4) =   1
                l(5) =   1
                l(6) =   1
                l(7) =   2
                l(8) =   2
                l(9) =   2
               l(10) =   2
     Q(r) pseudized with 0 coefficients 


     PseudoPot. # 2 for Te read from file:
     ./Te.rel-pbesol-dn-kjpaw_psl.0.2.2.UPF
     MD5 check sum: 044fef1d4fb1505d1391827d062c76ed
     Pseudo is Projector augmented-wave + core cor, Zval = 16.0
     Generated using "atomic" code by A. Dal Corso  v.5.0.2 svn rev. 9415
     Shape of augmentation charge: PSQ
     Using radial grid of 1245 points, 10 beta functions with: 
                l(1) =   0
                l(2) =   0
                l(3) =   1
                l(4) =   1
                l(5) =   1
                l(6) =   1
                l(7) =   2
                l(8) =   2
                l(9) =   2
               l(10) =   2
     Q(r) pseudized with 0 coefficients 


     atomic species   valence    mass     pseudopotential
        Ge            14.00    50.00000     Ge( 1.00)
        Te            16.00    50.00000     Te( 1.00)

     No symmetry found


                                    s                        frac. trans.

      isym =  1     identity                                     

 cryst.   s( 1) = (     1          0          0      )
                  (     0          1          0      )
                  (     0          0          1      )

 cart.    s( 1) = (  1.0000000  0.0000000  0.0000000 )
                  (  0.0000000  1.0000000  0.0000000 )
                  (  0.0000000  0.0000000  1.0000000 )


   Cartesian axes

     site n.     atom                  positions (alat units)
         1           Te  tau(   1) = (  -1.2973781   0.0000000  -0.0000000  )
         2           Ge  tau(   2) = (   0.0055858   0.0000000   0.0000000  )

   Crystallographic axes

     site n.     atom                  positions (cryst. coord.)
         1           Te  tau(   1) = (  0.5232529  0.5232529  0.5232529  )
         2           Ge  tau(   2) = ( -0.0022529 -0.0022529 -0.0022529  )

     number of k points=   500  Marzari-Vanderbilt smearing, width (Ry)=  0.0100
                       cart. coord. in units 2pi/alat
        k(    1) = (  -0.0604973   0.0000000   0.0000000), wk =   0.0020000
        k(    2) = (  -0.1008289  -0.1025558  -0.0592106), wk =   0.0020000
        k(    3) = (  -0.1411605  -0.2051115  -0.1184212), wk =   0.0020000
        k(    4) = (  -0.1814920  -0.3076673  -0.1776318), wk =   0.0020000
        k(    5) = (  -0.2218236  -0.4102230  -0.2368424), wk =   0.0020000
        k(    6) = (   0.1411605   0.5127788   0.2960530), wk =   0.0020000
        k(    7) = (   0.1008289   0.4102230   0.2368424), wk =   0.0020000
        k(    8) = (   0.0604973   0.3076673   0.1776318), wk =   0.0020000
        k(    9) = (   0.0201658   0.2051115   0.1184212), wk =   0.0020000
        k(   10) = (  -0.0201658   0.1025558   0.0592106), wk =   0.0020000
        k(   11) = (  -0.1008289   0.1025558  -0.0592106), wk =   0.0020000
        k(   12) = (  -0.1411605   0.0000000  -0.1184212), wk =   0.0020000
        k(   13) = (  -0.1814920  -0.1025558  -0.1776318), wk =   0.0020000
        k(   14) = (  -0.2218236  -0.2051115  -0.2368424), wk =   0.0020000
        k(   15) = (  -0.2621552  -0.3076673  -0.2960530), wk =   0.0020000
        k(   16) = (   0.1008289   0.6153345   0.2368424), wk =   0.0020000
        k(   17) = (   0.0604973   0.5127788   0.1776318), wk =   0.0020000
        k(   18) = (   0.0201658   0.4102230   0.1184212), wk =   0.0020000
        k(   19) = (  -0.0201658   0.3076673   0.0592106), wk =   0.0020000
        k(   20) = (  -0.0604973   0.2051115  -0.0000000), wk =   0.0020000
        k(   21) = (  -0.1411605   0.2051115  -0.1184212), wk =   0.0020000
        k(   22) = (  -0.1814920   0.1025558  -0.1776318), wk =   0.0020000
        k(   23) = (  -0.2218236   0.0000000  -0.2368424), wk =   0.0020000
        k(   24) = (  -0.2621552  -0.1025558  -0.2960530), wk =   0.0020000
        k(   25) = (  -0.3024867  -0.2051115  -0.3552636), wk =   0.0020000
        k(   26) = (   0.0604973   0.7178903   0.1776318), wk =   0.0020000
        k(   27) = (   0.0201658   0.6153345   0.1184212), wk =   0.0020000
        k(   28) = (  -0.0201658   0.5127788   0.0592106), wk =   0.0020000
        k(   29) = (  -0.0604973   0.4102230  -0.0000000), wk =   0.0020000
        k(   30) = (  -0.1008289   0.3076673  -0.0592106), wk =   0.0020000
        k(   31) = (  -0.1814920   0.3076673  -0.1776318), wk =   0.0020000
        k(   32) = (  -0.2218236   0.2051115  -0.2368424), wk =   0.0020000
        k(   33) = (  -0.2621552   0.1025558  -0.2960530), wk =   0.0020000
        k(   34) = (  -0.3024867   0.0000000  -0.3552636), wk =   0.0020000
        k(   35) = (  -0.3428183  -0.1025558  -0.4144741), wk =   0.0020000
        k(   36) = (   0.0201658   0.8204460   0.1184212), wk =   0.0020000
        k(   37) = (  -0.0201658   0.7178903   0.0592106), wk =   0.0020000
        k(   38) = (  -0.0604973   0.6153345   0.0000000), wk =   0.0020000
        k(   39) = (  -0.1008289   0.5127788  -0.0592106), wk =   0.0020000
        k(   40) = (  -0.1411605   0.4102230  -0.1184212), wk =   0.0020000
        k(   41) = (  -0.2218236   0.4102230  -0.2368424), wk =   0.0020000
        k(   42) = (  -0.2621552   0.3076673  -0.2960530), wk =   0.0020000
        k(   43) = (  -0.3024867   0.2051115  -0.3552636), wk =   0.0020000
        k(   44) = (  -0.3428183   0.1025558  -0.4144741), wk =   0.0020000
        k(   45) = (  -0.3831499   0.0000000  -0.4736847), wk =   0.0020000
        k(   46) = (  -0.0201658   0.9230018   0.0592106), wk =   0.0020000
        k(   47) = (  -0.0604973   0.8204460  -0.0000000), wk =   0.0020000
        k(   48) = (  -0.1008289   0.7178903  -0.0592106), wk =   0.0020000
        k(   49) = (  -0.1411605   0.6153345  -0.1184212), wk =   0.0020000
        k(   50) = (  -0.1814920   0.5127788  -0.1776318), wk =   0.0020000
        k(   51) = (   0.1411605  -0.5127788   0.2960530), wk =   0.0020000
        k(   52) = (   0.1008289  -0.6153345   0.2368424), wk =   0.0020000
        k(   53) = (   0.0604973  -0.7178903   0.1776318), wk =   0.0020000
        k(   54) = (   0.0201658  -0.8204460   0.1184212), wk =   0.0020000
        k(   55) = (  -0.0201658  -0.9230018   0.0592106), wk =   0.0020000
        k(   56) = (   0.3428183   0.0000000   0.5921059), wk =   0.0020000
        k(   57) = (   0.3024867  -0.1025558   0.5328953), wk =   0.0020000
        k(   58) = (   0.2621552  -0.2051115   0.4736847), wk =   0.0020000
        k(   59) = (   0.2218236  -0.3076673   0.4144741), wk =   0.0020000
        k(   60) = (   0.1814920  -0.4102230   0.3552636), wk =   0.0020000
        k(   61) = (   0.1008289  -0.4102230   0.2368424), wk =   0.0020000
        k(   62) = (   0.0604973  -0.5127788   0.1776318), wk =   0.0020000
        k(   63) = (   0.0201658  -0.6153345   0.1184212), wk =   0.0020000
        k(   64) = (  -0.0201658  -0.7178903   0.0592106), wk =   0.0020000
        k(   65) = (  -0.0604973  -0.8204460   0.0000000), wk =   0.0020000
        k(   66) = (   0.3024867   0.1025558   0.5328953), wk =   0.0020000
        k(   67) = (   0.2621552   0.0000000   0.4736847), wk =   0.0020000
        k(   68) = (   0.2218236  -0.1025558   0.4144741), wk =   0.0020000
        k(   69) = (   0.1814920  -0.2051115   0.3552636), wk =   0.0020000
        k(   70) = (   0.1411605  -0.3076673   0.2960530), wk =   0.0020000
        k(   71) = (   0.0604973  -0.3076673   0.1776318), wk =   0.0020000
        k(   72) = (   0.0201658  -0.4102230   0.1184212), wk =   0.0020000
        k(   73) = (  -0.0201658  -0.5127788   0.0592106), wk =   0.0020000
        k(   74) = (  -0.0604973  -0.6153345   0.0000000), wk =   0.0020000
        k(   75) = (  -0.1008289  -0.7178903  -0.0592106), wk =   0.0020000
        k(   76) = (   0.2621552   0.2051115   0.4736847), wk =   0.0020000
        k(   77) = (   0.2218236   0.1025558   0.4144741), wk =   0.0020000
        k(   78) = (   0.1814920   0.0000000   0.3552636), wk =   0.0020000
        k(   79) = (   0.1411605  -0.1025558   0.2960530), wk =   0.0020000
        k(   80) = (   0.1008289  -0.2051115   0.2368424), wk =   0.0020000
        k(   81) = (   0.0201658  -0.2051115   0.1184212), wk =   0.0020000
        k(   82) = (  -0.0201658  -0.3076673   0.0592106), wk =   0.0020000
        k(   83) = (  -0.0604973  -0.4102230  -0.0000000), wk =   0.0020000
        k(   84) = (  -0.1008289  -0.5127788  -0.0592106), wk =   0.0020000
        k(   85) = (  -0.1411605  -0.6153345  -0.1184212), wk =   0.0020000
        k(   86) = (   0.2218236   0.3076673   0.4144741), wk =   0.0020000
        k(   87) = (   0.1814920   0.2051115   0.3552636), wk =   0.0020000
        k(   88) = (   0.1411605   0.1025558   0.2960530), wk =   0.0020000
        k(   89) = (   0.1008289   0.0000000   0.2368424), wk =   0.0020000
        k(   90) = (   0.0604973  -0.1025558   0.1776318), wk =   0.0020000
        k(   91) = (  -0.0201658  -0.1025558   0.0592106), wk =   0.0020000
        k(   92) = (  -0.0604973  -0.2051115  -0.0000000), wk =   0.0020000
        k(   93) = (  -0.1008289  -0.3076673  -0.0592106), wk =   0.0020000
        k(   94) = (  -0.1411605  -0.4102230  -0.1184212), wk =   0.0020000
        k(   95) = (  -0.1814920  -0.5127788  -0.1776318), wk =   0.0020000
        k(   96) = (   0.1814920   0.4102230   0.3552636), wk =   0.0020000
        k(   97) = (   0.1411605   0.3076673   0.2960530), wk =   0.0020000
        k(   98) = (   0.1008289   0.2051115   0.2368424), wk =   0.0020000
        k(   99) = (   0.0604973   0.1025558   0.1776318), wk =   0.0020000
        k(  100) = (   0.0201658   0.0000000   0.1184212), wk =   0.0020000
        k(  101) = (  -0.1008289   0.0000000   0.1184212), wk =   0.0020000
        k(  102) = (  -0.1411605  -0.1025558   0.0592106), wk =   0.0020000
        k(  103) = (  -0.1814920  -0.2051115   0.0000000), wk =   0.0020000
        k(  104) = (  -0.2218236  -0.3076673  -0.0592106), wk =   0.0020000
        k(  105) = (  -0.2621552  -0.4102230  -0.1184212), wk =   0.0020000
        k(  106) = (   0.1008289   0.5127788   0.4144741), wk =   0.0020000
        k(  107) = (   0.0604973   0.4102230   0.3552636), wk =   0.0020000
        k(  108) = (   0.0201658   0.3076673   0.2960530), wk =   0.0020000
        k(  109) = (  -0.0201658   0.2051115   0.2368424), wk =   0.0020000
        k(  110) = (  -0.0604973   0.1025558   0.1776318), wk =   0.0020000
        k(  111) = (  -0.1411605   0.1025558   0.0592106), wk =   0.0020000
        k(  112) = (  -0.1814920   0.0000000   0.0000000), wk =   0.0020000
        k(  113) = (  -0.2218236  -0.1025558  -0.0592106), wk =   0.0020000
        k(  114) = (  -0.2621552  -0.2051115  -0.1184212), wk =   0.0020000
        k(  115) = (  -0.3024867  -0.3076673  -0.1776318), wk =   0.0020000
        k(  116) = (   0.0604973   0.6153345   0.3552636), wk =   0.0020000
        k(  117) = (   0.0201658   0.5127788   0.2960530), wk =   0.0020000
        k(  118) = (  -0.0201658   0.4102230   0.2368424), wk =   0.0020000
        k(  119) = (  -0.0604973   0.3076673   0.1776318), wk =   0.0020000
        k(  120) = (  -0.1008289   0.2051115   0.1184212), wk =   0.0020000
        k(  121) = (  -0.1814920   0.2051115   0.0000000), wk =   0.0020000
        k(  122) = (  -0.2218236   0.1025558  -0.0592106), wk =   0.0020000
        k(  123) = (  -0.2621552   0.0000000  -0.1184212), wk =   0.0020000
        k(  124) = (  -0.3024867  -0.1025558  -0.1776318), wk =   0.0020000
        k(  125) = (  -0.3428183  -0.2051115  -0.2368424), wk =   0.0020000
        k(  126) = (   0.0201658   0.7178903   0.2960530), wk =   0.0020000
        k(  127) = (  -0.0201658   0.6153345   0.2368424), wk =   0.0020000
        k(  128) = (  -0.0604973   0.5127788   0.1776318), wk =   0.0020000
        k(  129) = (  -0.1008289   0.4102230   0.1184212), wk =   0.0020000
        k(  130) = (  -0.1411605   0.3076673   0.0592106), wk =   0.0020000
        k(  131) = (  -0.2218236   0.3076673  -0.0592106), wk =   0.0020000
        k(  132) = (  -0.2621552   0.2051115  -0.1184212), wk =   0.0020000
        k(  133) = (  -0.3024867   0.1025558  -0.1776318), wk =   0.0020000
        k(  134) = (  -0.3428183   0.0000000  -0.2368424), wk =   0.0020000
        k(  135) = (  -0.3831499  -0.1025558  -0.2960530), wk =   0.0020000
        k(  136) = (  -0.0201658   0.8204460   0.2368424), wk =   0.0020000
        k(  137) = (  -0.0604973   0.7178903   0.1776318), wk =   0.0020000
        k(  138) = (  -0.1008289   0.6153345   0.1184212), wk =   0.0020000
        k(  139) = (  -0.1411605   0.5127788   0.0592106), wk =   0.0020000
        k(  140) = (  -0.1814920   0.4102230  -0.0000000), wk =   0.0020000
        k(  141) = (  -0.2621552   0.4102230  -0.1184212), wk =   0.0020000
        k(  142) = (  -0.3024867   0.3076673  -0.1776318), wk =   0.0020000
        k(  143) = (  -0.3428183   0.2051115  -0.2368424), wk =   0.0020000
        k(  144) = (  -0.3831499   0.1025558  -0.2960530), wk =   0.0020000
        k(  145) = (  -0.4234814   0.0000000  -0.3552636), wk =   0.0020000
        k(  146) = (  -0.0604973   0.9230018   0.1776318), wk =   0.0020000
        k(  147) = (  -0.1008289   0.8204460   0.1184212), wk =   0.0020000
        k(  148) = (  -0.1411605   0.7178903   0.0592106), wk =   0.0020000
        k(  149) = (  -0.1814920   0.6153345  -0.0000000), wk =   0.0020000
        k(  150) = (  -0.2218236   0.5127788  -0.0592106), wk =   0.0020000
        k(  151) = (   0.1008289  -0.5127788   0.4144741), wk =   0.0020000
        k(  152) = (   0.0604973  -0.6153345   0.3552636), wk =   0.0020000
        k(  153) = (   0.0201658  -0.7178903   0.2960530), wk =   0.0020000
        k(  154) = (  -0.0201658  -0.8204460   0.2368424), wk =   0.0020000
        k(  155) = (  -0.0604973  -0.9230018   0.1776318), wk =   0.0020000
        k(  156) = (   0.3024867   0.0000000   0.7105271), wk =   0.0020000
        k(  157) = (   0.2621552  -0.1025558   0.6513165), wk =   0.0020000
        k(  158) = (   0.2218236  -0.2051115   0.5921059), wk =   0.0020000
        k(  159) = (   0.1814920  -0.3076673   0.5328953), wk =   0.0020000
        k(  160) = (   0.1411605  -0.4102230   0.4736847), wk =   0.0020000
        k(  161) = (   0.0604973  -0.4102230   0.3552636), wk =   0.0020000
        k(  162) = (   0.0201658  -0.5127788   0.2960530), wk =   0.0020000
        k(  163) = (  -0.0201658  -0.6153345   0.2368424), wk =   0.0020000
        k(  164) = (  -0.0604973  -0.7178903   0.1776318), wk =   0.0020000
        k(  165) = (  -0.1008289  -0.8204460   0.1184212), wk =   0.0020000
        k(  166) = (   0.2621552   0.1025558   0.6513165), wk =   0.0020000
        k(  167) = (   0.2218236   0.0000000   0.5921059), wk =   0.0020000
        k(  168) = (   0.1814920  -0.1025558   0.5328953), wk =   0.0020000
        k(  169) = (   0.1411605  -0.2051115   0.4736847), wk =   0.0020000
        k(  170) = (   0.1008289  -0.3076673   0.4144741), wk =   0.0020000
        k(  171) = (   0.0201658  -0.3076673   0.2960530), wk =   0.0020000
        k(  172) = (  -0.0201658  -0.4102230   0.2368424), wk =   0.0020000
        k(  173) = (  -0.0604973  -0.5127788   0.1776318), wk =   0.0020000
        k(  174) = (  -0.1008289  -0.6153345   0.1184212), wk =   0.0020000
        k(  175) = (  -0.1411605  -0.7178903   0.0592106), wk =   0.0020000
        k(  176) = (   0.2218236   0.2051115   0.5921059), wk =   0.0020000
        k(  177) = (   0.1814920   0.1025558   0.5328953), wk =   0.0020000
        k(  178) = (   0.1411605   0.0000000   0.4736847), wk =   0.0020000
        k(  179) = (   0.1008289  -0.1025558   0.4144741), wk =   0.0020000
        k(  180) = (   0.0604973  -0.2051115   0.3552636), wk =   0.0020000
        k(  181) = (  -0.0201658  -0.2051115   0.2368424), wk =   0.0020000
        k(  182) = (  -0.0604973  -0.3076673   0.1776318), wk =   0.0020000
        k(  183) = (  -0.1008289  -0.4102230   0.1184212), wk =   0.0020000
        k(  184) = (  -0.1411605  -0.5127788   0.0592106), wk =   0.0020000
        k(  185) = (  -0.1814920  -0.6153345  -0.0000000), wk =   0.0020000
        k(  186) = (   0.1814920   0.3076673   0.5328953), wk =   0.0020000
        k(  187) = (   0.1411605   0.2051115   0.4736847), wk =   0.0020000
        k(  188) = (   0.1008289   0.1025558   0.4144741), wk =   0.0020000
        k(  189) = (   0.0604973   0.0000000   0.3552636), wk =   0.0020000
        k(  190) = (   0.0201658  -0.1025558   0.2960530), wk =   0.0020000
        k(  191) = (  -0.0604973  -0.1025558   0.1776318), wk =   0.0020000
        k(  192) = (  -0.1008289  -0.2051115   0.1184212), wk =   0.0020000
        k(  193) = (  -0.1411605  -0.3076673   0.0592106), wk =   0.0020000
        k(  194) = (  -0.1814920  -0.4102230   0.0000000), wk =   0.0020000
        k(  195) = (  -0.2218236  -0.5127788  -0.0592106), wk =   0.0020000
        k(  196) = (   0.1411605   0.4102230   0.4736847), wk =   0.0020000
        k(  197) = (   0.1008289   0.3076673   0.4144741), wk =   0.0020000
        k(  198) = (   0.0604973   0.2051115   0.3552636), wk =   0.0020000
        k(  199) = (   0.0201658   0.1025558   0.2960530), wk =   0.0020000
        k(  200) = (  -0.0201658   0.0000000   0.2368424), wk =   0.0020000
        k(  201) = (  -0.1411605   0.0000000   0.2368424), wk =   0.0020000
        k(  202) = (  -0.1814920  -0.1025558   0.1776318), wk =   0.0020000
        k(  203) = (  -0.2218236  -0.2051115   0.1184212), wk =   0.0020000
        k(  204) = (  -0.2621552  -0.3076673   0.0592106), wk =   0.0020000
        k(  205) = (  -0.3024867  -0.4102230   0.0000000), wk =   0.0020000
        k(  206) = (   0.0604973   0.5127788   0.5328953), wk =   0.0020000
        k(  207) = (   0.0201658   0.4102230   0.4736847), wk =   0.0020000
        k(  208) = (  -0.0201658   0.3076673   0.4144741), wk =   0.0020000
        k(  209) = (  -0.0604973   0.2051115   0.3552636), wk =   0.0020000
        k(  210) = (  -0.1008289   0.1025558   0.2960530), wk =   0.0020000
        k(  211) = (  -0.1814920   0.1025558   0.1776318), wk =   0.0020000
        k(  212) = (  -0.2218236   0.0000000   0.1184212), wk =   0.0020000
        k(  213) = (  -0.2621552  -0.1025558   0.0592106), wk =   0.0020000
        k(  214) = (  -0.3024867  -0.2051115   0.0000000), wk =   0.0020000
        k(  215) = (  -0.3428183  -0.3076673  -0.0592106), wk =   0.0020000
        k(  216) = (   0.0201658   0.6153345   0.4736847), wk =   0.0020000
        k(  217) = (  -0.0201658   0.5127788   0.4144741), wk =   0.0020000
        k(  218) = (  -0.0604973   0.4102230   0.3552636), wk =   0.0020000
        k(  219) = (  -0.1008289   0.3076673   0.2960530), wk =   0.0020000
        k(  220) = (  -0.1411605   0.2051115   0.2368424), wk =   0.0020000
        k(  221) = (  -0.2218236   0.2051115   0.1184212), wk =   0.0020000
        k(  222) = (  -0.2621552   0.1025558   0.0592106), wk =   0.0020000
        k(  223) = (  -0.3024867   0.0000000   0.0000000), wk =   0.0020000
        k(  224) = (  -0.3428183  -0.1025558  -0.0592106), wk =   0.0020000
        k(  225) = (  -0.3831499  -0.2051115  -0.1184212), wk =   0.0020000
        k(  226) = (  -0.0201658   0.7178903   0.4144741), wk =   0.0020000
        k(  227) = (  -0.0604973   0.6153345   0.3552636), wk =   0.0020000
        k(  228) = (  -0.1008289   0.5127788   0.2960530), wk =   0.0020000
        k(  229) = (  -0.1411605   0.4102230   0.2368424), wk =   0.0020000
        k(  230) = (  -0.1814920   0.3076673   0.1776318), wk =   0.0020000
        k(  231) = (  -0.2621552   0.3076673   0.0592106), wk =   0.0020000
        k(  232) = (  -0.3024867   0.2051115   0.0000000), wk =   0.0020000
        k(  233) = (  -0.3428183   0.1025558  -0.0592106), wk =   0.0020000
        k(  234) = (  -0.3831499   0.0000000  -0.1184212), wk =   0.0020000
        k(  235) = (  -0.4234814  -0.1025558  -0.1776318), wk =   0.0020000
        k(  236) = (  -0.0604973   0.8204460   0.3552636), wk =   0.0020000
        k(  237) = (  -0.1008289   0.7178903   0.2960530), wk =   0.0020000
        k(  238) = (  -0.1411605   0.6153345   0.2368424), wk =   0.0020000
        k(  239) = (  -0.1814920   0.5127788   0.1776318), wk =   0.0020000
        k(  240) = (  -0.2218236   0.4102230   0.1184212), wk =   0.0020000
        k(  241) = (  -0.3024867   0.4102230  -0.0000000), wk =   0.0020000
        k(  242) = (  -0.3428183   0.3076673  -0.0592106), wk =   0.0020000
        k(  243) = (  -0.3831499   0.2051115  -0.1184212), wk =   0.0020000
        k(  244) = (  -0.4234814   0.1025558  -0.1776318), wk =   0.0020000
        k(  245) = (  -0.4638130   0.0000000  -0.2368424), wk =   0.0020000
        k(  246) = (  -0.1008289   0.9230018   0.2960530), wk =   0.0020000
        k(  247) = (  -0.1411605   0.8204460   0.2368424), wk =   0.0020000
        k(  248) = (  -0.1814920   0.7178903   0.1776318), wk =   0.0020000
        k(  249) = (  -0.2218236   0.6153345   0.1184212), wk =   0.0020000
        k(  250) = (  -0.2621552   0.5127788   0.0592106), wk =   0.0020000
        k(  251) = (   0.0604973  -0.5127788   0.5328953), wk =   0.0020000
        k(  252) = (   0.0201658  -0.6153345   0.4736847), wk =   0.0020000
        k(  253) = (  -0.0201658  -0.7178903   0.4144741), wk =   0.0020000
        k(  254) = (  -0.0604973  -0.8204460   0.3552636), wk =   0.0020000
        k(  255) = (  -0.1008289  -0.9230018   0.2960530), wk =   0.0020000
        k(  256) = (   0.2621552   0.0000000   0.8289483), wk =   0.0020000
        k(  257) = (   0.2218236  -0.1025558   0.7697377), wk =   0.0020000
        k(  258) = (   0.1814920  -0.2051115   0.7105271), wk =   0.0020000
        k(  259) = (   0.1411605  -0.3076673   0.6513165), wk =   0.0020000
        k(  260) = (   0.1008289  -0.4102230   0.5921059), wk =   0.0020000
        k(  261) = (   0.0201658  -0.4102230   0.4736847), wk =   0.0020000
        k(  262) = (  -0.0201658  -0.5127788   0.4144741), wk =   0.0020000
        k(  263) = (  -0.0604973  -0.6153345   0.3552636), wk =   0.0020000
        k(  264) = (  -0.1008289  -0.7178903   0.2960530), wk =   0.0020000
        k(  265) = (  -0.1411605  -0.8204460   0.2368424), wk =   0.0020000
        k(  266) = (   0.2218236   0.1025558   0.7697377), wk =   0.0020000
        k(  267) = (   0.1814920   0.0000000   0.7105271), wk =   0.0020000
        k(  268) = (   0.1411605  -0.1025558   0.6513165), wk =   0.0020000
        k(  269) = (   0.1008289  -0.2051115   0.5921059), wk =   0.0020000
        k(  270) = (   0.0604973  -0.3076673   0.5328953), wk =   0.0020000
        k(  271) = (  -0.0201658  -0.3076673   0.4144741), wk =   0.0020000
        k(  272) = (  -0.0604973  -0.4102230   0.3552636), wk =   0.0020000
        k(  273) = (  -0.1008289  -0.5127788   0.2960530), wk =   0.0020000
        k(  274) = (  -0.1411605  -0.6153345   0.2368424), wk =   0.0020000
        k(  275) = (  -0.1814920  -0.7178903   0.1776318), wk =   0.0020000
        k(  276) = (   0.1814920   0.2051115   0.7105271), wk =   0.0020000
        k(  277) = (   0.1411605   0.1025558   0.6513165), wk =   0.0020000
        k(  278) = (   0.1008289   0.0000000   0.5921059), wk =   0.0020000
        k(  279) = (   0.0604973  -0.1025558   0.5328953), wk =   0.0020000
        k(  280) = (   0.0201658  -0.2051115   0.4736847), wk =   0.0020000
        k(  281) = (  -0.0604973  -0.2051115   0.3552636), wk =   0.0020000
        k(  282) = (  -0.1008289  -0.3076673   0.2960530), wk =   0.0020000
        k(  283) = (  -0.1411605  -0.4102230   0.2368424), wk =   0.0020000
        k(  284) = (  -0.1814920  -0.5127788   0.1776318), wk =   0.0020000
        k(  285) = (  -0.2218236  -0.6153345   0.1184212), wk =   0.0020000
        k(  286) = (   0.1411605   0.3076673   0.6513165), wk =   0.0020000
        k(  287) = (   0.1008289   0.2051115   0.5921059), wk =   0.0020000
        k(  288) = (   0.0604973   0.1025558   0.5328953), wk =   0.0020000
        k(  289) = (   0.0201658   0.0000000   0.4736847), wk =   0.0020000
        k(  290) = (  -0.0201658  -0.1025558   0.4144741), wk =   0.0020000
        k(  291) = (  -0.1008289  -0.1025558   0.2960530), wk =   0.0020000
        k(  292) = (  -0.1411605  -0.2051115   0.2368424), wk =   0.0020000
        k(  293) = (  -0.1814920  -0.3076673   0.1776318), wk =   0.0020000
        k(  294) = (  -0.2218236  -0.4102230   0.1184212), wk =   0.0020000
        k(  295) = (  -0.2621552  -0.5127788   0.0592106), wk =   0.0020000
        k(  296) = (   0.1008289   0.4102230   0.5921059), wk =   0.0020000
        k(  297) = (   0.0604973   0.3076673   0.5328953), wk =   0.0020000
        k(  298) = (   0.0201658   0.2051115   0.4736847), wk =   0.0020000
        k(  299) = (  -0.0201658   0.1025558   0.4144741), wk =   0.0020000
        k(  300) = (  -0.0604973   0.0000000   0.3552636), wk =   0.0020000
        k(  301) = (  -0.1814920   0.0000000   0.3552636), wk =   0.0020000
        k(  302) = (  -0.2218236  -0.1025558   0.2960530), wk =   0.0020000
        k(  303) = (  -0.2621552  -0.2051115   0.2368424), wk =   0.0020000
        k(  304) = (  -0.3024867  -0.3076673   0.1776318), wk =   0.0020000
        k(  305) = (  -0.3428183  -0.4102230   0.1184212), wk =   0.0020000
        k(  306) = (   0.0201658   0.5127788   0.6513165), wk =   0.0020000
        k(  307) = (  -0.0201658   0.4102230   0.5921059), wk =   0.0020000
        k(  308) = (  -0.0604973   0.3076673   0.5328953), wk =   0.0020000
        k(  309) = (  -0.1008289   0.2051115   0.4736847), wk =   0.0020000
        k(  310) = (  -0.1411605   0.1025558   0.4144741), wk =   0.0020000
        k(  311) = (  -0.2218236   0.1025558   0.2960530), wk =   0.0020000
        k(  312) = (  -0.2621552   0.0000000   0.2368424), wk =   0.0020000
        k(  313) = (  -0.3024867  -0.1025558   0.1776318), wk =   0.0020000
        k(  314) = (  -0.3428183  -0.2051115   0.1184212), wk =   0.0020000
        k(  315) = (  -0.3831499  -0.3076673   0.0592106), wk =   0.0020000
        k(  316) = (  -0.0201658   0.6153345   0.5921059), wk =   0.0020000
        k(  317) = (  -0.0604973   0.5127788   0.5328953), wk =   0.0020000
        k(  318) = (  -0.1008289   0.4102230   0.4736847), wk =   0.0020000
        k(  319) = (  -0.1411605   0.3076673   0.4144741), wk =   0.0020000
        k(  320) = (  -0.1814920   0.2051115   0.3552636), wk =   0.0020000
        k(  321) = (  -0.2621552   0.2051115   0.2368424), wk =   0.0020000
        k(  322) = (  -0.3024867   0.1025558   0.1776318), wk =   0.0020000
        k(  323) = (  -0.3428183   0.0000000   0.1184212), wk =   0.0020000
        k(  324) = (  -0.3831499  -0.1025558   0.0592106), wk =   0.0020000
        k(  325) = (  -0.4234814  -0.2051115   0.0000000), wk =   0.0020000
        k(  326) = (  -0.0604973   0.7178903   0.5328953), wk =   0.0020000
        k(  327) = (  -0.1008289   0.6153345   0.4736847), wk =   0.0020000
        k(  328) = (  -0.1411605   0.5127788   0.4144741), wk =   0.0020000
        k(  329) = (  -0.1814920   0.4102230   0.3552636), wk =   0.0020000
        k(  330) = (  -0.2218236   0.3076673   0.2960530), wk =   0.0020000
        k(  331) = (  -0.3024867   0.3076673   0.1776318), wk =   0.0020000
        k(  332) = (  -0.3428183   0.2051115   0.1184212), wk =   0.0020000
        k(  333) = (  -0.3831499   0.1025558   0.0592106), wk =   0.0020000
        k(  334) = (  -0.4234814   0.0000000   0.0000000), wk =   0.0020000
        k(  335) = (  -0.4638130  -0.1025558  -0.0592106), wk =   0.0020000
        k(  336) = (  -0.1008289   0.8204460   0.4736847), wk =   0.0020000
        k(  337) = (  -0.1411605   0.7178903   0.4144741), wk =   0.0020000
        k(  338) = (  -0.1814920   0.6153345   0.3552636), wk =   0.0020000
        k(  339) = (  -0.2218236   0.5127788   0.2960530), wk =   0.0020000
        k(  340) = (  -0.2621552   0.4102230   0.2368424), wk =   0.0020000
        k(  341) = (  -0.3428183   0.4102230   0.1184212), wk =   0.0020000
        k(  342) = (  -0.3831499   0.3076673   0.0592106), wk =   0.0020000
        k(  343) = (  -0.4234814   0.2051115  -0.0000000), wk =   0.0020000
        k(  344) = (  -0.4638130   0.1025558  -0.0592106), wk =   0.0020000
        k(  345) = (  -0.5041445   0.0000000  -0.1184212), wk =   0.0020000
        k(  346) = (  -0.1411605   0.9230018   0.4144741), wk =   0.0020000
        k(  347) = (  -0.1814920   0.8204460   0.3552636), wk =   0.0020000
        k(  348) = (  -0.2218236   0.7178903   0.2960530), wk =   0.0020000
        k(  349) = (  -0.2621552   0.6153345   0.2368424), wk =   0.0020000
        k(  350) = (  -0.3024867   0.5127788   0.1776318), wk =   0.0020000
        k(  351) = (   0.0201658  -0.5127788   0.6513165), wk =   0.0020000
        k(  352) = (  -0.0201658  -0.6153345   0.5921059), wk =   0.0020000
        k(  353) = (  -0.0604973  -0.7178903   0.5328953), wk =   0.0020000
        k(  354) = (  -0.1008289  -0.8204460   0.4736847), wk =   0.0020000
        k(  355) = (  -0.1411605  -0.9230018   0.4144741), wk =   0.0020000
        k(  356) = (   0.2218236   0.0000000   0.9473695), wk =   0.0020000
        k(  357) = (   0.1814920  -0.1025558   0.8881589), wk =   0.0020000
        k(  358) = (   0.1411605  -0.2051115   0.8289483), wk =   0.0020000
        k(  359) = (   0.1008289  -0.3076673   0.7697377), wk =   0.0020000
        k(  360) = (   0.0604973  -0.4102230   0.7105271), wk =   0.0020000
        k(  361) = (  -0.0201658  -0.4102230   0.5921059), wk =   0.0020000
        k(  362) = (  -0.0604973  -0.5127788   0.5328953), wk =   0.0020000
        k(  363) = (  -0.1008289  -0.6153345   0.4736847), wk =   0.0020000
        k(  364) = (  -0.1411605  -0.7178903   0.4144741), wk =   0.0020000
        k(  365) = (  -0.1814920  -0.8204460   0.3552636), wk =   0.0020000
        k(  366) = (   0.1814920   0.1025558   0.8881589), wk =   0.0020000
        k(  367) = (   0.1411605   0.0000000   0.8289483), wk =   0.0020000
        k(  368) = (   0.1008289  -0.1025558   0.7697377), wk =   0.0020000
        k(  369) = (   0.0604973  -0.2051115   0.7105271), wk =   0.0020000
        k(  370) = (   0.0201658  -0.3076673   0.6513165), wk =   0.0020000
        k(  371) = (  -0.0604973  -0.3076673   0.5328953), wk =   0.0020000
        k(  372) = (  -0.1008289  -0.4102230   0.4736847), wk =   0.0020000
        k(  373) = (  -0.1411605  -0.5127788   0.4144741), wk =   0.0020000
        k(  374) = (  -0.1814920  -0.6153345   0.3552636), wk =   0.0020000
        k(  375) = (  -0.2218236  -0.7178903   0.2960530), wk =   0.0020000
        k(  376) = (   0.1411605   0.2051115   0.8289483), wk =   0.0020000
        k(  377) = (   0.1008289   0.1025558   0.7697377), wk =   0.0020000
        k(  378) = (   0.0604973   0.0000000   0.7105271), wk =   0.0020000
        k(  379) = (   0.0201658  -0.1025558   0.6513165), wk =   0.0020000
        k(  380) = (  -0.0201658  -0.2051115   0.5921059), wk =   0.0020000
        k(  381) = (  -0.1008289  -0.2051115   0.4736847), wk =   0.0020000
        k(  382) = (  -0.1411605  -0.3076673   0.4144741), wk =   0.0020000
        k(  383) = (  -0.1814920  -0.4102230   0.3552636), wk =   0.0020000
        k(  384) = (  -0.2218236  -0.5127788   0.2960530), wk =   0.0020000
        k(  385) = (  -0.2621552  -0.6153345   0.2368424), wk =   0.0020000
        k(  386) = (   0.1008289   0.3076673   0.7697377), wk =   0.0020000
        k(  387) = (   0.0604973   0.2051115   0.7105271), wk =   0.0020000
        k(  388) = (   0.0201658   0.1025558   0.6513165), wk =   0.0020000
        k(  389) = (  -0.0201658   0.0000000   0.5921059), wk =   0.0020000
        k(  390) = (  -0.0604973  -0.1025558   0.5328953), wk =   0.0020000
        k(  391) = (  -0.1411605  -0.1025558   0.4144741), wk =   0.0020000
        k(  392) = (  -0.1814920  -0.2051115   0.3552636), wk =   0.0020000
        k(  393) = (  -0.2218236  -0.3076673   0.2960530), wk =   0.0020000
        k(  394) = (  -0.2621552  -0.4102230   0.2368424), wk =   0.0020000
        k(  395) = (  -0.3024867  -0.5127788   0.1776318), wk =   0.0020000
        k(  396) = (   0.0604973   0.4102230   0.7105271), wk =   0.0020000
        k(  397) = (   0.0201658   0.3076673   0.6513165), wk =   0.0020000
        k(  398) = (  -0.0201658   0.2051115   0.5921059), wk =   0.0020000
        k(  399) = (  -0.0604973   0.1025558   0.5328953), wk =   0.0020000
        k(  400) = (  -0.1008289   0.0000000   0.4736847), wk =   0.0020000
        k(  401) = (  -0.2218236   0.0000000   0.4736847), wk =   0.0020000
        k(  402) = (  -0.2621552  -0.1025558   0.4144741), wk =   0.0020000
        k(  403) = (  -0.3024867  -0.2051115   0.3552636), wk =   0.0020000
        k(  404) = (  -0.3428183  -0.3076673   0.2960530), wk =   0.0020000
        k(  405) = (  -0.3831499  -0.4102230   0.2368424), wk =   0.0020000
        k(  406) = (  -0.0201658   0.5127788   0.7697377), wk =   0.0020000
        k(  407) = (  -0.0604973   0.4102230   0.7105271), wk =   0.0020000
        k(  408) = (  -0.1008289   0.3076673   0.6513165), wk =   0.0020000
        k(  409) = (  -0.1411605   0.2051115   0.5921059), wk =   0.0020000
        k(  410) = (  -0.1814920   0.1025558   0.5328953), wk =   0.0020000
        k(  411) = (  -0.2621552   0.1025558   0.4144741), wk =   0.0020000
        k(  412) = (  -0.3024867   0.0000000   0.3552636), wk =   0.0020000
        k(  413) = (  -0.3428183  -0.1025558   0.2960530), wk =   0.0020000
        k(  414) = (  -0.3831499  -0.2051115   0.2368424), wk =   0.0020000
        k(  415) = (  -0.4234814  -0.3076673   0.1776318), wk =   0.0020000
        k(  416) = (  -0.0604973   0.6153345   0.7105271), wk =   0.0020000
        k(  417) = (  -0.1008289   0.5127788   0.6513165), wk =   0.0020000
        k(  418) = (  -0.1411605   0.4102230   0.5921059), wk =   0.0020000
        k(  419) = (  -0.1814920   0.3076673   0.5328953), wk =   0.0020000
        k(  420) = (  -0.2218236   0.2051115   0.4736847), wk =   0.0020000
        k(  421) = (  -0.3024867   0.2051115   0.3552636), wk =   0.0020000
        k(  422) = (  -0.3428183   0.1025558   0.2960530), wk =   0.0020000
        k(  423) = (  -0.3831499   0.0000000   0.2368424), wk =   0.0020000
        k(  424) = (  -0.4234814  -0.1025558   0.1776318), wk =   0.0020000
        k(  425) = (  -0.4638130  -0.2051115   0.1184212), wk =   0.0020000
        k(  426) = (  -0.1008289   0.7178903   0.6513165), wk =   0.0020000
        k(  427) = (  -0.1411605   0.6153345   0.5921059), wk =   0.0020000
        k(  428) = (  -0.1814920   0.5127788   0.5328953), wk =   0.0020000
        k(  429) = (  -0.2218236   0.4102230   0.4736847), wk =   0.0020000
        k(  430) = (  -0.2621552   0.3076673   0.4144741), wk =   0.0020000
        k(  431) = (  -0.3428183   0.3076673   0.2960530), wk =   0.0020000
        k(  432) = (  -0.3831499   0.2051115   0.2368424), wk =   0.0020000
        k(  433) = (  -0.4234814   0.1025558   0.1776318), wk =   0.0020000
        k(  434) = (  -0.4638130   0.0000000   0.1184212), wk =   0.0020000
        k(  435) = (  -0.5041445  -0.1025558   0.0592106), wk =   0.0020000
        k(  436) = (  -0.1411605   0.8204460   0.5921059), wk =   0.0020000
        k(  437) = (  -0.1814920   0.7178903   0.5328953), wk =   0.0020000
        k(  438) = (  -0.2218236   0.6153345   0.4736847), wk =   0.0020000
        k(  439) = (  -0.2621552   0.5127788   0.4144741), wk =   0.0020000
        k(  440) = (  -0.3024867   0.4102230   0.3552636), wk =   0.0020000
        k(  441) = (  -0.3831499   0.4102230   0.2368424), wk =   0.0020000
        k(  442) = (  -0.4234814   0.3076673   0.1776318), wk =   0.0020000
        k(  443) = (  -0.4638130   0.2051115   0.1184212), wk =   0.0020000
        k(  444) = (  -0.5041445   0.1025558   0.0592106), wk =   0.0020000
        k(  445) = (  -0.5444761   0.0000000   0.0000000), wk =   0.0020000
        k(  446) = (  -0.1814920   0.9230018   0.5328953), wk =   0.0020000
        k(  447) = (  -0.2218236   0.8204460   0.4736847), wk =   0.0020000
        k(  448) = (  -0.2621552   0.7178903   0.4144741), wk =   0.0020000
        k(  449) = (  -0.3024867   0.6153345   0.3552636), wk =   0.0020000
        k(  450) = (  -0.3428183   0.5127788   0.2960530), wk =   0.0020000
        k(  451) = (  -0.0201658  -0.5127788   0.7697377), wk =   0.0020000
        k(  452) = (  -0.0604973  -0.6153345   0.7105271), wk =   0.0020000
        k(  453) = (  -0.1008289  -0.7178903   0.6513165), wk =   0.0020000
        k(  454) = (  -0.1411605  -0.8204460   0.5921059), wk =   0.0020000
        k(  455) = (  -0.1814920  -0.9230018   0.5328953), wk =   0.0020000
        k(  456) = (   0.1814920   0.0000000   1.0657907), wk =   0.0020000
        k(  457) = (   0.1411605  -0.1025558   1.0065801), wk =   0.0020000
        k(  458) = (   0.1008289  -0.2051115   0.9473695), wk =   0.0020000
        k(  459) = (   0.0604973  -0.3076673   0.8881589), wk =   0.0020000
        k(  460) = (   0.0201658  -0.4102230   0.8289483), wk =   0.0020000
        k(  461) = (  -0.0604973  -0.4102230   0.7105271), wk =   0.0020000
        k(  462) = (  -0.1008289  -0.5127788   0.6513165), wk =   0.0020000
        k(  463) = (  -0.1411605  -0.6153345   0.5921059), wk =   0.0020000
        k(  464) = (  -0.1814920  -0.7178903   0.5328953), wk =   0.0020000
        k(  465) = (  -0.2218236  -0.8204460   0.4736847), wk =   0.0020000
        k(  466) = (   0.1411605   0.1025558   1.0065801), wk =   0.0020000
        k(  467) = (   0.1008289   0.0000000   0.9473695), wk =   0.0020000
        k(  468) = (   0.0604973  -0.1025558   0.8881589), wk =   0.0020000
        k(  469) = (   0.0201658  -0.2051115   0.8289483), wk =   0.0020000
        k(  470) = (  -0.0201658  -0.3076673   0.7697377), wk =   0.0020000
        k(  471) = (  -0.1008289  -0.3076673   0.6513165), wk =   0.0020000
        k(  472) = (  -0.1411605  -0.4102230   0.5921059), wk =   0.0020000
        k(  473) = (  -0.1814920  -0.5127788   0.5328953), wk =   0.0020000
        k(  474) = (  -0.2218236  -0.6153345   0.4736847), wk =   0.0020000
        k(  475) = (  -0.2621552  -0.7178903   0.4144741), wk =   0.0020000
        k(  476) = (   0.1008289   0.2051115   0.9473695), wk =   0.0020000
        k(  477) = (   0.0604973   0.1025558   0.8881589), wk =   0.0020000
        k(  478) = (   0.0201658   0.0000000   0.8289483), wk =   0.0020000
        k(  479) = (  -0.0201658  -0.1025558   0.7697377), wk =   0.0020000
        k(  480) = (  -0.0604973  -0.2051115   0.7105271), wk =   0.0020000
        k(  481) = (  -0.1411605  -0.2051115   0.5921059), wk =   0.0020000
        k(  482) = (  -0.1814920  -0.3076673   0.5328953), wk =   0.0020000
        k(  483) = (  -0.2218236  -0.4102230   0.4736847), wk =   0.0020000
        k(  484) = (  -0.2621552  -0.5127788   0.4144741), wk =   0.0020000
        k(  485) = (  -0.3024867  -0.6153345   0.3552636), wk =   0.0020000
        k(  486) = (   0.0604973   0.3076673   0.8881589), wk =   0.0020000
        k(  487) = (   0.0201658   0.2051115   0.8289483), wk =   0.0020000
        k(  488) = (  -0.0201658   0.1025558   0.7697377), wk =   0.0020000
        k(  489) = (  -0.0604973   0.0000000   0.7105271), wk =   0.0020000
        k(  490) = (  -0.1008289  -0.1025558   0.6513165), wk =   0.0020000
        k(  491) = (  -0.1814920  -0.1025558   0.5328953), wk =   0.0020000
        k(  492) = (  -0.2218236  -0.2051115   0.4736847), wk =   0.0020000
        k(  493) = (  -0.2621552  -0.3076673   0.4144741), wk =   0.0020000
        k(  494) = (  -0.3024867  -0.4102230   0.3552636), wk =   0.0020000
        k(  495) = (  -0.3428183  -0.5127788   0.2960530), wk =   0.0020000
        k(  496) = (   0.0201658   0.4102230   0.8289483), wk =   0.0020000
        k(  497) = (  -0.0201658   0.3076673   0.7697377), wk =   0.0020000
        k(  498) = (  -0.0604973   0.2051115   0.7105271), wk =   0.0020000
        k(  499) = (  -0.1008289   0.1025558   0.6513165), wk =   0.0020000
        k(  500) = (  -0.1411605   0.0000000   0.5921059), wk =   0.0020000

                       cryst. coord.
        k(    1) = (   0.0500000   0.0500000   0.0500000), wk =   0.0020000
        k(    2) = (   0.0500000   0.0500000   0.1500000), wk =   0.0020000
        k(    3) = (   0.0500000   0.0500000   0.2500000), wk =   0.0020000
        k(    4) = (   0.0500000   0.0500000   0.3500000), wk =   0.0020000
        k(    5) = (   0.0500000   0.0500000   0.4500000), wk =   0.0020000
        k(    6) = (   0.0500000   0.0500000  -0.4500000), wk =   0.0020000
        k(    7) = (   0.0500000   0.0500000  -0.3500000), wk =   0.0020000
        k(    8) = (   0.0500000   0.0500000  -0.2500000), wk =   0.0020000
        k(    9) = (   0.0500000   0.0500000  -0.1500000), wk =   0.0020000
        k(   10) = (   0.0500000   0.0500000  -0.0500000), wk =   0.0020000
        k(   11) = (   0.0500000   0.1500000   0.0500000), wk =   0.0020000
        k(   12) = (   0.0500000   0.1500000   0.1500000), wk =   0.0020000
        k(   13) = (   0.0500000   0.1500000   0.2500000), wk =   0.0020000
        k(   14) = (   0.0500000   0.1500000   0.3500000), wk =   0.0020000
        k(   15) = (   0.0500000   0.1500000   0.4500000), wk =   0.0020000
        k(   16) = (   0.0500000   0.1500000  -0.4500000), wk =   0.0020000
        k(   17) = (   0.0500000   0.1500000  -0.3500000), wk =   0.0020000
        k(   18) = (   0.0500000   0.1500000  -0.2500000), wk =   0.0020000
        k(   19) = (   0.0500000   0.1500000  -0.1500000), wk =   0.0020000
        k(   20) = (   0.0500000   0.1500000  -0.0500000), wk =   0.0020000
        k(   21) = (   0.0500000   0.2500000   0.0500000), wk =   0.0020000
        k(   22) = (   0.0500000   0.2500000   0.1500000), wk =   0.0020000
        k(   23) = (   0.0500000   0.2500000   0.2500000), wk =   0.0020000
        k(   24) = (   0.0500000   0.2500000   0.3500000), wk =   0.0020000
        k(   25) = (   0.0500000   0.2500000   0.4500000), wk =   0.0020000
        k(   26) = (   0.0500000   0.2500000  -0.4500000), wk =   0.0020000
        k(   27) = (   0.0500000   0.2500000  -0.3500000), wk =   0.0020000
        k(   28) = (   0.0500000   0.2500000  -0.2500000), wk =   0.0020000
        k(   29) = (   0.0500000   0.2500000  -0.1500000), wk =   0.0020000
        k(   30) = (   0.0500000   0.2500000  -0.0500000), wk =   0.0020000
        k(   31) = (   0.0500000   0.3500000   0.0500000), wk =   0.0020000
        k(   32) = (   0.0500000   0.3500000   0.1500000), wk =   0.0020000
        k(   33) = (   0.0500000   0.3500000   0.2500000), wk =   0.0020000
        k(   34) = (   0.0500000   0.3500000   0.3500000), wk =   0.0020000
        k(   35) = (   0.0500000   0.3500000   0.4500000), wk =   0.0020000
        k(   36) = (   0.0500000   0.3500000  -0.4500000), wk =   0.0020000
        k(   37) = (   0.0500000   0.3500000  -0.3500000), wk =   0.0020000
        k(   38) = (   0.0500000   0.3500000  -0.2500000), wk =   0.0020000
        k(   39) = (   0.0500000   0.3500000  -0.1500000), wk =   0.0020000
        k(   40) = (   0.0500000   0.3500000  -0.0500000), wk =   0.0020000
        k(   41) = (   0.0500000   0.4500000   0.0500000), wk =   0.0020000
        k(   42) = (   0.0500000   0.4500000   0.1500000), wk =   0.0020000
        k(   43) = (   0.0500000   0.4500000   0.2500000), wk =   0.0020000
        k(   44) = (   0.0500000   0.4500000   0.3500000), wk =   0.0020000
        k(   45) = (   0.0500000   0.4500000   0.4500000), wk =   0.0020000
        k(   46) = (   0.0500000   0.4500000  -0.4500000), wk =   0.0020000
        k(   47) = (   0.0500000   0.4500000  -0.3500000), wk =   0.0020000
        k(   48) = (   0.0500000   0.4500000  -0.2500000), wk =   0.0020000
        k(   49) = (   0.0500000   0.4500000  -0.1500000), wk =   0.0020000
        k(   50) = (   0.0500000   0.4500000  -0.0500000), wk =   0.0020000
        k(   51) = (   0.0500000  -0.4500000   0.0500000), wk =   0.0020000
        k(   52) = (   0.0500000  -0.4500000   0.1500000), wk =   0.0020000
        k(   53) = (   0.0500000  -0.4500000   0.2500000), wk =   0.0020000
        k(   54) = (   0.0500000  -0.4500000   0.3500000), wk =   0.0020000
        k(   55) = (   0.0500000  -0.4500000   0.4500000), wk =   0.0020000
        k(   56) = (   0.0500000  -0.4500000  -0.4500000), wk =   0.0020000
        k(   57) = (   0.0500000  -0.4500000  -0.3500000), wk =   0.0020000
        k(   58) = (   0.0500000  -0.4500000  -0.2500000), wk =   0.0020000
        k(   59) = (   0.0500000  -0.4500000  -0.1500000), wk =   0.0020000
        k(   60) = (   0.0500000  -0.4500000  -0.0500000), wk =   0.0020000
        k(   61) = (   0.0500000  -0.3500000   0.0500000), wk =   0.0020000
        k(   62) = (   0.0500000  -0.3500000   0.1500000), wk =   0.0020000
        k(   63) = (   0.0500000  -0.3500000   0.2500000), wk =   0.0020000
        k(   64) = (   0.0500000  -0.3500000   0.3500000), wk =   0.0020000
        k(   65) = (   0.0500000  -0.3500000   0.4500000), wk =   0.0020000
        k(   66) = (   0.0500000  -0.3500000  -0.4500000), wk =   0.0020000
        k(   67) = (   0.0500000  -0.3500000  -0.3500000), wk =   0.0020000
        k(   68) = (   0.0500000  -0.3500000  -0.2500000), wk =   0.0020000
        k(   69) = (   0.0500000  -0.3500000  -0.1500000), wk =   0.0020000
        k(   70) = (   0.0500000  -0.3500000  -0.0500000), wk =   0.0020000
        k(   71) = (   0.0500000  -0.2500000   0.0500000), wk =   0.0020000
        k(   72) = (   0.0500000  -0.2500000   0.1500000), wk =   0.0020000
        k(   73) = (   0.0500000  -0.2500000   0.2500000), wk =   0.0020000
        k(   74) = (   0.0500000  -0.2500000   0.3500000), wk =   0.0020000
        k(   75) = (   0.0500000  -0.2500000   0.4500000), wk =   0.0020000
        k(   76) = (   0.0500000  -0.2500000  -0.4500000), wk =   0.0020000
        k(   77) = (   0.0500000  -0.2500000  -0.3500000), wk =   0.0020000
        k(   78) = (   0.0500000  -0.2500000  -0.2500000), wk =   0.0020000
        k(   79) = (   0.0500000  -0.2500000  -0.1500000), wk =   0.0020000
        k(   80) = (   0.0500000  -0.2500000  -0.0500000), wk =   0.0020000
        k(   81) = (   0.0500000  -0.1500000   0.0500000), wk =   0.0020000
        k(   82) = (   0.0500000  -0.1500000   0.1500000), wk =   0.0020000
        k(   83) = (   0.0500000  -0.1500000   0.2500000), wk =   0.0020000
        k(   84) = (   0.0500000  -0.1500000   0.3500000), wk =   0.0020000
        k(   85) = (   0.0500000  -0.1500000   0.4500000), wk =   0.0020000
        k(   86) = (   0.0500000  -0.1500000  -0.4500000), wk =   0.0020000
        k(   87) = (   0.0500000  -0.1500000  -0.3500000), wk =   0.0020000
        k(   88) = (   0.0500000  -0.1500000  -0.2500000), wk =   0.0020000
        k(   89) = (   0.0500000  -0.1500000  -0.1500000), wk =   0.0020000
        k(   90) = (   0.0500000  -0.1500000  -0.0500000), wk =   0.0020000
        k(   91) = (   0.0500000  -0.0500000   0.0500000), wk =   0.0020000
        k(   92) = (   0.0500000  -0.0500000   0.1500000), wk =   0.0020000
        k(   93) = (   0.0500000  -0.0500000   0.2500000), wk =   0.0020000
        k(   94) = (   0.0500000  -0.0500000   0.3500000), wk =   0.0020000
        k(   95) = (   0.0500000  -0.0500000   0.4500000), wk =   0.0020000
        k(   96) = (   0.0500000  -0.0500000  -0.4500000), wk =   0.0020000
        k(   97) = (   0.0500000  -0.0500000  -0.3500000), wk =   0.0020000
        k(   98) = (   0.0500000  -0.0500000  -0.2500000), wk =   0.0020000
        k(   99) = (   0.0500000  -0.0500000  -0.1500000), wk =   0.0020000
        k(  100) = (   0.0500000  -0.0500000  -0.0500000), wk =   0.0020000
        k(  101) = (   0.1500000   0.0500000   0.0500000), wk =   0.0020000
        k(  102) = (   0.1500000   0.0500000   0.1500000), wk =   0.0020000
        k(  103) = (   0.1500000   0.0500000   0.2500000), wk =   0.0020000
        k(  104) = (   0.1500000   0.0500000   0.3500000), wk =   0.0020000
        k(  105) = (   0.1500000   0.0500000   0.4500000), wk =   0.0020000
        k(  106) = (   0.1500000   0.0500000  -0.4500000), wk =   0.0020000
        k(  107) = (   0.1500000   0.0500000  -0.3500000), wk =   0.0020000
        k(  108) = (   0.1500000   0.0500000  -0.2500000), wk =   0.0020000
        k(  109) = (   0.1500000   0.0500000  -0.1500000), wk =   0.0020000
        k(  110) = (   0.1500000   0.0500000  -0.0500000), wk =   0.0020000
        k(  111) = (   0.1500000   0.1500000   0.0500000), wk =   0.0020000
        k(  112) = (   0.1500000   0.1500000   0.1500000), wk =   0.0020000
        k(  113) = (   0.1500000   0.1500000   0.2500000), wk =   0.0020000
        k(  114) = (   0.1500000   0.1500000   0.3500000), wk =   0.0020000
        k(  115) = (   0.1500000   0.1500000   0.4500000), wk =   0.0020000
        k(  116) = (   0.1500000   0.1500000  -0.4500000), wk =   0.0020000
        k(  117) = (   0.1500000   0.1500000  -0.3500000), wk =   0.0020000
        k(  118) = (   0.1500000   0.1500000  -0.2500000), wk =   0.0020000
        k(  119) = (   0.1500000   0.1500000  -0.1500000), wk =   0.0020000
        k(  120) = (   0.1500000   0.1500000  -0.0500000), wk =   0.0020000
        k(  121) = (   0.1500000   0.2500000   0.0500000), wk =   0.0020000
        k(  122) = (   0.1500000   0.2500000   0.1500000), wk =   0.0020000
        k(  123) = (   0.1500000   0.2500000   0.2500000), wk =   0.0020000
        k(  124) = (   0.1500000   0.2500000   0.3500000), wk =   0.0020000
        k(  125) = (   0.1500000   0.2500000   0.4500000), wk =   0.0020000
        k(  126) = (   0.1500000   0.2500000  -0.4500000), wk =   0.0020000
        k(  127) = (   0.1500000   0.2500000  -0.3500000), wk =   0.0020000
        k(  128) = (   0.1500000   0.2500000  -0.2500000), wk =   0.0020000
        k(  129) = (   0.1500000   0.2500000  -0.1500000), wk =   0.0020000
        k(  130) = (   0.1500000   0.2500000  -0.0500000), wk =   0.0020000
        k(  131) = (   0.1500000   0.3500000   0.0500000), wk =   0.0020000
        k(  132) = (   0.1500000   0.3500000   0.1500000), wk =   0.0020000
        k(  133) = (   0.1500000   0.3500000   0.2500000), wk =   0.0020000
        k(  134) = (   0.1500000   0.3500000   0.3500000), wk =   0.0020000
        k(  135) = (   0.1500000   0.3500000   0.4500000), wk =   0.0020000
        k(  136) = (   0.1500000   0.3500000  -0.4500000), wk =   0.0020000
        k(  137) = (   0.1500000   0.3500000  -0.3500000), wk =   0.0020000
        k(  138) = (   0.1500000   0.3500000  -0.2500000), wk =   0.0020000
        k(  139) = (   0.1500000   0.3500000  -0.1500000), wk =   0.0020000
        k(  140) = (   0.1500000   0.3500000  -0.0500000), wk =   0.0020000
        k(  141) = (   0.1500000   0.4500000   0.0500000), wk =   0.0020000
        k(  142) = (   0.1500000   0.4500000   0.1500000), wk =   0.0020000
        k(  143) = (   0.1500000   0.4500000   0.2500000), wk =   0.0020000
        k(  144) = (   0.1500000   0.4500000   0.3500000), wk =   0.0020000
        k(  145) = (   0.1500000   0.4500000   0.4500000), wk =   0.0020000
        k(  146) = (   0.1500000   0.4500000  -0.4500000), wk =   0.0020000
        k(  147) = (   0.1500000   0.4500000  -0.3500000), wk =   0.0020000
        k(  148) = (   0.1500000   0.4500000  -0.2500000), wk =   0.0020000
        k(  149) = (   0.1500000   0.4500000  -0.1500000), wk =   0.0020000
        k(  150) = (   0.1500000   0.4500000  -0.0500000), wk =   0.0020000
        k(  151) = (   0.1500000  -0.4500000   0.0500000), wk =   0.0020000
        k(  152) = (   0.1500000  -0.4500000   0.1500000), wk =   0.0020000
        k(  153) = (   0.1500000  -0.4500000   0.2500000), wk =   0.0020000
        k(  154) = (   0.1500000  -0.4500000   0.3500000), wk =   0.0020000
        k(  155) = (   0.1500000  -0.4500000   0.4500000), wk =   0.0020000
        k(  156) = (   0.1500000  -0.4500000  -0.4500000), wk =   0.0020000
        k(  157) = (   0.1500000  -0.4500000  -0.3500000), wk =   0.0020000
        k(  158) = (   0.1500000  -0.4500000  -0.2500000), wk =   0.0020000
        k(  159) = (   0.1500000  -0.4500000  -0.1500000), wk =   0.0020000
        k(  160) = (   0.1500000  -0.4500000  -0.0500000), wk =   0.0020000
        k(  161) = (   0.1500000  -0.3500000   0.0500000), wk =   0.0020000
        k(  162) = (   0.1500000  -0.3500000   0.1500000), wk =   0.0020000
        k(  163) = (   0.1500000  -0.3500000   0.2500000), wk =   0.0020000
        k(  164) = (   0.1500000  -0.3500000   0.3500000), wk =   0.0020000
        k(  165) = (   0.1500000  -0.3500000   0.4500000), wk =   0.0020000
        k(  166) = (   0.1500000  -0.3500000  -0.4500000), wk =   0.0020000
        k(  167) = (   0.1500000  -0.3500000  -0.3500000), wk =   0.0020000
        k(  168) = (   0.1500000  -0.3500000  -0.2500000), wk =   0.0020000
        k(  169) = (   0.1500000  -0.3500000  -0.1500000), wk =   0.0020000
        k(  170) = (   0.1500000  -0.3500000  -0.0500000), wk =   0.0020000
        k(  171) = (   0.1500000  -0.2500000   0.0500000), wk =   0.0020000
        k(  172) = (   0.1500000  -0.2500000   0.1500000), wk =   0.0020000
        k(  173) = (   0.1500000  -0.2500000   0.2500000), wk =   0.0020000
        k(  174) = (   0.1500000  -0.2500000   0.3500000), wk =   0.0020000
        k(  175) = (   0.1500000  -0.2500000   0.4500000), wk =   0.0020000
        k(  176) = (   0.1500000  -0.2500000  -0.4500000), wk =   0.0020000
        k(  177) = (   0.1500000  -0.2500000  -0.3500000), wk =   0.0020000
        k(  178) = (   0.1500000  -0.2500000  -0.2500000), wk =   0.0020000
        k(  179) = (   0.1500000  -0.2500000  -0.1500000), wk =   0.0020000
        k(  180) = (   0.1500000  -0.2500000  -0.0500000), wk =   0.0020000
        k(  181) = (   0.1500000  -0.1500000   0.0500000), wk =   0.0020000
        k(  182) = (   0.1500000  -0.1500000   0.1500000), wk =   0.0020000
        k(  183) = (   0.1500000  -0.1500000   0.2500000), wk =   0.0020000
        k(  184) = (   0.1500000  -0.1500000   0.3500000), wk =   0.0020000
        k(  185) = (   0.1500000  -0.1500000   0.4500000), wk =   0.0020000
        k(  186) = (   0.1500000  -0.1500000  -0.4500000), wk =   0.0020000
        k(  187) = (   0.1500000  -0.1500000  -0.3500000), wk =   0.0020000
        k(  188) = (   0.1500000  -0.1500000  -0.2500000), wk =   0.0020000
        k(  189) = (   0.1500000  -0.1500000  -0.1500000), wk =   0.0020000
        k(  190) = (   0.1500000  -0.1500000  -0.0500000), wk =   0.0020000
        k(  191) = (   0.1500000  -0.0500000   0.0500000), wk =   0.0020000
        k(  192) = (   0.1500000  -0.0500000   0.1500000), wk =   0.0020000
        k(  193) = (   0.1500000  -0.0500000   0.2500000), wk =   0.0020000
        k(  194) = (   0.1500000  -0.0500000   0.3500000), wk =   0.0020000
        k(  195) = (   0.1500000  -0.0500000   0.4500000), wk =   0.0020000
        k(  196) = (   0.1500000  -0.0500000  -0.4500000), wk =   0.0020000
        k(  197) = (   0.1500000  -0.0500000  -0.3500000), wk =   0.0020000
        k(  198) = (   0.1500000  -0.0500000  -0.2500000), wk =   0.0020000
        k(  199) = (   0.1500000  -0.0500000  -0.1500000), wk =   0.0020000
        k(  200) = (   0.1500000  -0.0500000  -0.0500000), wk =   0.0020000
        k(  201) = (   0.2500000   0.0500000   0.0500000), wk =   0.0020000
        k(  202) = (   0.2500000   0.0500000   0.1500000), wk =   0.0020000
        k(  203) = (   0.2500000   0.0500000   0.2500000), wk =   0.0020000
        k(  204) = (   0.2500000   0.0500000   0.3500000), wk =   0.0020000
        k(  205) = (   0.2500000   0.0500000   0.4500000), wk =   0.0020000
        k(  206) = (   0.2500000   0.0500000  -0.4500000), wk =   0.0020000
        k(  207) = (   0.2500000   0.0500000  -0.3500000), wk =   0.0020000
        k(  208) = (   0.2500000   0.0500000  -0.2500000), wk =   0.0020000
        k(  209) = (   0.2500000   0.0500000  -0.1500000), wk =   0.0020000
        k(  210) = (   0.2500000   0.0500000  -0.0500000), wk =   0.0020000
        k(  211) = (   0.2500000   0.1500000   0.0500000), wk =   0.0020000
        k(  212) = (   0.2500000   0.1500000   0.1500000), wk =   0.0020000
        k(  213) = (   0.2500000   0.1500000   0.2500000), wk =   0.0020000
        k(  214) = (   0.2500000   0.1500000   0.3500000), wk =   0.0020000
        k(  215) = (   0.2500000   0.1500000   0.4500000), wk =   0.0020000
        k(  216) = (   0.2500000   0.1500000  -0.4500000), wk =   0.0020000
        k(  217) = (   0.2500000   0.1500000  -0.3500000), wk =   0.0020000
        k(  218) = (   0.2500000   0.1500000  -0.2500000), wk =   0.0020000
        k(  219) = (   0.2500000   0.1500000  -0.1500000), wk =   0.0020000
        k(  220) = (   0.2500000   0.1500000  -0.0500000), wk =   0.0020000
        k(  221) = (   0.2500000   0.2500000   0.0500000), wk =   0.0020000
        k(  222) = (   0.2500000   0.2500000   0.1500000), wk =   0.0020000
        k(  223) = (   0.2500000   0.2500000   0.2500000), wk =   0.0020000
        k(  224) = (   0.2500000   0.2500000   0.3500000), wk =   0.0020000
        k(  225) = (   0.2500000   0.2500000   0.4500000), wk =   0.0020000
        k(  226) = (   0.2500000   0.2500000  -0.4500000), wk =   0.0020000
        k(  227) = (   0.2500000   0.2500000  -0.3500000), wk =   0.0020000
        k(  228) = (   0.2500000   0.2500000  -0.2500000), wk =   0.0020000
        k(  229) = (   0.2500000   0.2500000  -0.1500000), wk =   0.0020000
        k(  230) = (   0.2500000   0.2500000  -0.0500000), wk =   0.0020000
        k(  231) = (   0.2500000   0.3500000   0.0500000), wk =   0.0020000
        k(  232) = (   0.2500000   0.3500000   0.1500000), wk =   0.0020000
        k(  233) = (   0.2500000   0.3500000   0.2500000), wk =   0.0020000
        k(  234) = (   0.2500000   0.3500000   0.3500000), wk =   0.0020000
        k(  235) = (   0.2500000   0.3500000   0.4500000), wk =   0.0020000
        k(  236) = (   0.2500000   0.3500000  -0.4500000), wk =   0.0020000
        k(  237) = (   0.2500000   0.3500000  -0.3500000), wk =   0.0020000
        k(  238) = (   0.2500000   0.3500000  -0.2500000), wk =   0.0020000
        k(  239) = (   0.2500000   0.3500000  -0.1500000), wk =   0.0020000
        k(  240) = (   0.2500000   0.3500000  -0.0500000), wk =   0.0020000
        k(  241) = (   0.2500000   0.4500000   0.0500000), wk =   0.0020000
        k(  242) = (   0.2500000   0.4500000   0.1500000), wk =   0.0020000
        k(  243) = (   0.2500000   0.4500000   0.2500000), wk =   0.0020000
        k(  244) = (   0.2500000   0.4500000   0.3500000), wk =   0.0020000
        k(  245) = (   0.2500000   0.4500000   0.4500000), wk =   0.0020000
        k(  246) = (   0.2500000   0.4500000  -0.4500000), wk =   0.0020000
        k(  247) = (   0.2500000   0.4500000  -0.3500000), wk =   0.0020000
        k(  248) = (   0.2500000   0.4500000  -0.2500000), wk =   0.0020000
        k(  249) = (   0.2500000   0.4500000  -0.1500000), wk =   0.0020000
        k(  250) = (   0.2500000   0.4500000  -0.0500000), wk =   0.0020000
        k(  251) = (   0.2500000  -0.4500000   0.0500000), wk =   0.0020000
        k(  252) = (   0.2500000  -0.4500000   0.1500000), wk =   0.0020000
        k(  253) = (   0.2500000  -0.4500000   0.2500000), wk =   0.0020000
        k(  254) = (   0.2500000  -0.4500000   0.3500000), wk =   0.0020000
        k(  255) = (   0.2500000  -0.4500000   0.4500000), wk =   0.0020000
        k(  256) = (   0.2500000  -0.4500000  -0.4500000), wk =   0.0020000
        k(  257) = (   0.2500000  -0.4500000  -0.3500000), wk =   0.0020000
        k(  258) = (   0.2500000  -0.4500000  -0.2500000), wk =   0.0020000
        k(  259) = (   0.2500000  -0.4500000  -0.1500000), wk =   0.0020000
        k(  260) = (   0.2500000  -0.4500000  -0.0500000), wk =   0.0020000
        k(  261) = (   0.2500000  -0.3500000   0.0500000), wk =   0.0020000
        k(  262) = (   0.2500000  -0.3500000   0.1500000), wk =   0.0020000
        k(  263) = (   0.2500000  -0.3500000   0.2500000), wk =   0.0020000
        k(  264) = (   0.2500000  -0.3500000   0.3500000), wk =   0.0020000
        k(  265) = (   0.2500000  -0.3500000   0.4500000), wk =   0.0020000
        k(  266) = (   0.2500000  -0.3500000  -0.4500000), wk =   0.0020000
        k(  267) = (   0.2500000  -0.3500000  -0.3500000), wk =   0.0020000
        k(  268) = (   0.2500000  -0.3500000  -0.2500000), wk =   0.0020000
        k(  269) = (   0.2500000  -0.3500000  -0.1500000), wk =   0.0020000
        k(  270) = (   0.2500000  -0.3500000  -0.0500000), wk =   0.0020000
        k(  271) = (   0.2500000  -0.2500000   0.0500000), wk =   0.0020000
        k(  272) = (   0.2500000  -0.2500000   0.1500000), wk =   0.0020000
        k(  273) = (   0.2500000  -0.2500000   0.2500000), wk =   0.0020000
        k(  274) = (   0.2500000  -0.2500000   0.3500000), wk =   0.0020000
        k(  275) = (   0.2500000  -0.2500000   0.4500000), wk =   0.0020000
        k(  276) = (   0.2500000  -0.2500000  -0.4500000), wk =   0.0020000
        k(  277) = (   0.2500000  -0.2500000  -0.3500000), wk =   0.0020000
        k(  278) = (   0.2500000  -0.2500000  -0.2500000), wk =   0.0020000
        k(  279) = (   0.2500000  -0.2500000  -0.1500000), wk =   0.0020000
        k(  280) = (   0.2500000  -0.2500000  -0.0500000), wk =   0.0020000
        k(  281) = (   0.2500000  -0.1500000   0.0500000), wk =   0.0020000
        k(  282) = (   0.2500000  -0.1500000   0.1500000), wk =   0.0020000
        k(  283) = (   0.2500000  -0.1500000   0.2500000), wk =   0.0020000
        k(  284) = (   0.2500000  -0.1500000   0.3500000), wk =   0.0020000
        k(  285) = (   0.2500000  -0.1500000   0.4500000), wk =   0.0020000
        k(  286) = (   0.2500000  -0.1500000  -0.4500000), wk =   0.0020000
        k(  287) = (   0.2500000  -0.1500000  -0.3500000), wk =   0.0020000
        k(  288) = (   0.2500000  -0.1500000  -0.2500000), wk =   0.0020000
        k(  289) = (   0.2500000  -0.1500000  -0.1500000), wk =   0.0020000
        k(  290) = (   0.2500000  -0.1500000  -0.0500000), wk =   0.0020000
        k(  291) = (   0.2500000  -0.0500000   0.0500000), wk =   0.0020000
        k(  292) = (   0.2500000  -0.0500000   0.1500000), wk =   0.0020000
        k(  293) = (   0.2500000  -0.0500000   0.2500000), wk =   0.0020000
        k(  294) = (   0.2500000  -0.0500000   0.3500000), wk =   0.0020000
        k(  295) = (   0.2500000  -0.0500000   0.4500000), wk =   0.0020000
        k(  296) = (   0.2500000  -0.0500000  -0.4500000), wk =   0.0020000
        k(  297) = (   0.2500000  -0.0500000  -0.3500000), wk =   0.0020000
        k(  298) = (   0.2500000  -0.0500000  -0.2500000), wk =   0.0020000
        k(  299) = (   0.2500000  -0.0500000  -0.1500000), wk =   0.0020000
        k(  300) = (   0.2500000  -0.0500000  -0.0500000), wk =   0.0020000
        k(  301) = (   0.3500000   0.0500000   0.0500000), wk =   0.0020000
        k(  302) = (   0.3500000   0.0500000   0.1500000), wk =   0.0020000
        k(  303) = (   0.3500000   0.0500000   0.2500000), wk =   0.0020000
        k(  304) = (   0.3500000   0.0500000   0.3500000), wk =   0.0020000
        k(  305) = (   0.3500000   0.0500000   0.4500000), wk =   0.0020000
        k(  306) = (   0.3500000   0.0500000  -0.4500000), wk =   0.0020000
        k(  307) = (   0.3500000   0.0500000  -0.3500000), wk =   0.0020000
        k(  308) = (   0.3500000   0.0500000  -0.2500000), wk =   0.0020000
        k(  309) = (   0.3500000   0.0500000  -0.1500000), wk =   0.0020000
        k(  310) = (   0.3500000   0.0500000  -0.0500000), wk =   0.0020000
        k(  311) = (   0.3500000   0.1500000   0.0500000), wk =   0.0020000
        k(  312) = (   0.3500000   0.1500000   0.1500000), wk =   0.0020000
        k(  313) = (   0.3500000   0.1500000   0.2500000), wk =   0.0020000
        k(  314) = (   0.3500000   0.1500000   0.3500000), wk =   0.0020000
        k(  315) = (   0.3500000   0.1500000   0.4500000), wk =   0.0020000
        k(  316) = (   0.3500000   0.1500000  -0.4500000), wk =   0.0020000
        k(  317) = (   0.3500000   0.1500000  -0.3500000), wk =   0.0020000
        k(  318) = (   0.3500000   0.1500000  -0.2500000), wk =   0.0020000
        k(  319) = (   0.3500000   0.1500000  -0.1500000), wk =   0.0020000
        k(  320) = (   0.3500000   0.1500000  -0.0500000), wk =   0.0020000
        k(  321) = (   0.3500000   0.2500000   0.0500000), wk =   0.0020000
        k(  322) = (   0.3500000   0.2500000   0.1500000), wk =   0.0020000
        k(  323) = (   0.3500000   0.2500000   0.2500000), wk =   0.0020000
        k(  324) = (   0.3500000   0.2500000   0.3500000), wk =   0.0020000
        k(  325) = (   0.3500000   0.2500000   0.4500000), wk =   0.0020000
        k(  326) = (   0.3500000   0.2500000  -0.4500000), wk =   0.0020000
        k(  327) = (   0.3500000   0.2500000  -0.3500000), wk =   0.0020000
        k(  328) = (   0.3500000   0.2500000  -0.2500000), wk =   0.0020000
        k(  329) = (   0.3500000   0.2500000  -0.1500000), wk =   0.0020000
        k(  330) = (   0.3500000   0.2500000  -0.0500000), wk =   0.0020000
        k(  331) = (   0.3500000   0.3500000   0.0500000), wk =   0.0020000
        k(  332) = (   0.3500000   0.3500000   0.1500000), wk =   0.0020000
        k(  333) = (   0.3500000   0.3500000   0.2500000), wk =   0.0020000
        k(  334) = (   0.3500000   0.3500000   0.3500000), wk =   0.0020000
        k(  335) = (   0.3500000   0.3500000   0.4500000), wk =   0.0020000
        k(  336) = (   0.3500000   0.3500000  -0.4500000), wk =   0.0020000
        k(  337) = (   0.3500000   0.3500000  -0.3500000), wk =   0.0020000
        k(  338) = (   0.3500000   0.3500000  -0.2500000), wk =   0.0020000
        k(  339) = (   0.3500000   0.3500000  -0.1500000), wk =   0.0020000
        k(  340) = (   0.3500000   0.3500000  -0.0500000), wk =   0.0020000
        k(  341) = (   0.3500000   0.4500000   0.0500000), wk =   0.0020000
        k(  342) = (   0.3500000   0.4500000   0.1500000), wk =   0.0020000
        k(  343) = (   0.3500000   0.4500000   0.2500000), wk =   0.0020000
        k(  344) = (   0.3500000   0.4500000   0.3500000), wk =   0.0020000
        k(  345) = (   0.3500000   0.4500000   0.4500000), wk =   0.0020000
        k(  346) = (   0.3500000   0.4500000  -0.4500000), wk =   0.0020000
        k(  347) = (   0.3500000   0.4500000  -0.3500000), wk =   0.0020000
        k(  348) = (   0.3500000   0.4500000  -0.2500000), wk =   0.0020000
        k(  349) = (   0.3500000   0.4500000  -0.1500000), wk =   0.0020000
        k(  350) = (   0.3500000   0.4500000  -0.0500000), wk =   0.0020000
        k(  351) = (   0.3500000  -0.4500000   0.0500000), wk =   0.0020000
        k(  352) = (   0.3500000  -0.4500000   0.1500000), wk =   0.0020000
        k(  353) = (   0.3500000  -0.4500000   0.2500000), wk =   0.0020000
        k(  354) = (   0.3500000  -0.4500000   0.3500000), wk =   0.0020000
        k(  355) = (   0.3500000  -0.4500000   0.4500000), wk =   0.0020000
        k(  356) = (   0.3500000  -0.4500000  -0.4500000), wk =   0.0020000
        k(  357) = (   0.3500000  -0.4500000  -0.3500000), wk =   0.0020000
        k(  358) = (   0.3500000  -0.4500000  -0.2500000), wk =   0.0020000
        k(  359) = (   0.3500000  -0.4500000  -0.1500000), wk =   0.0020000
        k(  360) = (   0.3500000  -0.4500000  -0.0500000), wk =   0.0020000
        k(  361) = (   0.3500000  -0.3500000   0.0500000), wk =   0.0020000
        k(  362) = (   0.3500000  -0.3500000   0.1500000), wk =   0.0020000
        k(  363) = (   0.3500000  -0.3500000   0.2500000), wk =   0.0020000
        k(  364) = (   0.3500000  -0.3500000   0.3500000), wk =   0.0020000
        k(  365) = (   0.3500000  -0.3500000   0.4500000), wk =   0.0020000
        k(  366) = (   0.3500000  -0.3500000  -0.4500000), wk =   0.0020000
        k(  367) = (   0.3500000  -0.3500000  -0.3500000), wk =   0.0020000
        k(  368) = (   0.3500000  -0.3500000  -0.2500000), wk =   0.0020000
        k(  369) = (   0.3500000  -0.3500000  -0.1500000), wk =   0.0020000
        k(  370) = (   0.3500000  -0.3500000  -0.0500000), wk =   0.0020000
        k(  371) = (   0.3500000  -0.2500000   0.0500000), wk =   0.0020000
        k(  372) = (   0.3500000  -0.2500000   0.1500000), wk =   0.0020000
        k(  373) = (   0.3500000  -0.2500000   0.2500000), wk =   0.0020000
        k(  374) = (   0.3500000  -0.2500000   0.3500000), wk =   0.0020000
        k(  375) = (   0.3500000  -0.2500000   0.4500000), wk =   0.0020000
        k(  376) = (   0.3500000  -0.2500000  -0.4500000), wk =   0.0020000
        k(  377) = (   0.3500000  -0.2500000  -0.3500000), wk =   0.0020000
        k(  378) = (   0.3500000  -0.2500000  -0.2500000), wk =   0.0020000
        k(  379) = (   0.3500000  -0.2500000  -0.1500000), wk =   0.0020000
        k(  380) = (   0.3500000  -0.2500000  -0.0500000), wk =   0.0020000
        k(  381) = (   0.3500000  -0.1500000   0.0500000), wk =   0.0020000
        k(  382) = (   0.3500000  -0.1500000   0.1500000), wk =   0.0020000
        k(  383) = (   0.3500000  -0.1500000   0.2500000), wk =   0.0020000
        k(  384) = (   0.3500000  -0.1500000   0.3500000), wk =   0.0020000
        k(  385) = (   0.3500000  -0.1500000   0.4500000), wk =   0.0020000
        k(  386) = (   0.3500000  -0.1500000  -0.4500000), wk =   0.0020000
        k(  387) = (   0.3500000  -0.1500000  -0.3500000), wk =   0.0020000
        k(  388) = (   0.3500000  -0.1500000  -0.2500000), wk =   0.0020000
        k(  389) = (   0.3500000  -0.1500000  -0.1500000), wk =   0.0020000
        k(  390) = (   0.3500000  -0.1500000  -0.0500000), wk =   0.0020000
        k(  391) = (   0.3500000  -0.0500000   0.0500000), wk =   0.0020000
        k(  392) = (   0.3500000  -0.0500000   0.1500000), wk =   0.0020000
        k(  393) = (   0.3500000  -0.0500000   0.2500000), wk =   0.0020000
        k(  394) = (   0.3500000  -0.0500000   0.3500000), wk =   0.0020000
        k(  395) = (   0.3500000  -0.0500000   0.4500000), wk =   0.0020000
        k(  396) = (   0.3500000  -0.0500000  -0.4500000), wk =   0.0020000
        k(  397) = (   0.3500000  -0.0500000  -0.3500000), wk =   0.0020000
        k(  398) = (   0.3500000  -0.0500000  -0.2500000), wk =   0.0020000
        k(  399) = (   0.3500000  -0.0500000  -0.1500000), wk =   0.0020000
        k(  400) = (   0.3500000  -0.0500000  -0.0500000), wk =   0.0020000
        k(  401) = (   0.4500000   0.0500000   0.0500000), wk =   0.0020000
        k(  402) = (   0.4500000   0.0500000   0.1500000), wk =   0.0020000
        k(  403) = (   0.4500000   0.0500000   0.2500000), wk =   0.0020000
        k(  404) = (   0.4500000   0.0500000   0.3500000), wk =   0.0020000
        k(  405) = (   0.4500000   0.0500000   0.4500000), wk =   0.0020000
        k(  406) = (   0.4500000   0.0500000  -0.4500000), wk =   0.0020000
        k(  407) = (   0.4500000   0.0500000  -0.3500000), wk =   0.0020000
        k(  408) = (   0.4500000   0.0500000  -0.2500000), wk =   0.0020000
        k(  409) = (   0.4500000   0.0500000  -0.1500000), wk =   0.0020000
        k(  410) = (   0.4500000   0.0500000  -0.0500000), wk =   0.0020000
        k(  411) = (   0.4500000   0.1500000   0.0500000), wk =   0.0020000
        k(  412) = (   0.4500000   0.1500000   0.1500000), wk =   0.0020000
        k(  413) = (   0.4500000   0.1500000   0.2500000), wk =   0.0020000
        k(  414) = (   0.4500000   0.1500000   0.3500000), wk =   0.0020000
        k(  415) = (   0.4500000   0.1500000   0.4500000), wk =   0.0020000
        k(  416) = (   0.4500000   0.1500000  -0.4500000), wk =   0.0020000
        k(  417) = (   0.4500000   0.1500000  -0.3500000), wk =   0.0020000
        k(  418) = (   0.4500000   0.1500000  -0.2500000), wk =   0.0020000
        k(  419) = (   0.4500000   0.1500000  -0.1500000), wk =   0.0020000
        k(  420) = (   0.4500000   0.1500000  -0.0500000), wk =   0.0020000
        k(  421) = (   0.4500000   0.2500000   0.0500000), wk =   0.0020000
        k(  422) = (   0.4500000   0.2500000   0.1500000), wk =   0.0020000
        k(  423) = (   0.4500000   0.2500000   0.2500000), wk =   0.0020000
        k(  424) = (   0.4500000   0.2500000   0.3500000), wk =   0.0020000
        k(  425) = (   0.4500000   0.2500000   0.4500000), wk =   0.0020000
        k(  426) = (   0.4500000   0.2500000  -0.4500000), wk =   0.0020000
        k(  427) = (   0.4500000   0.2500000  -0.3500000), wk =   0.0020000
        k(  428) = (   0.4500000   0.2500000  -0.2500000), wk =   0.0020000
        k(  429) = (   0.4500000   0.2500000  -0.1500000), wk =   0.0020000
        k(  430) = (   0.4500000   0.2500000  -0.0500000), wk =   0.0020000
        k(  431) = (   0.4500000   0.3500000   0.0500000), wk =   0.0020000
        k(  432) = (   0.4500000   0.3500000   0.1500000), wk =   0.0020000
        k(  433) = (   0.4500000   0.3500000   0.2500000), wk =   0.0020000
        k(  434) = (   0.4500000   0.3500000   0.3500000), wk =   0.0020000
        k(  435) = (   0.4500000   0.3500000   0.4500000), wk =   0.0020000
        k(  436) = (   0.4500000   0.3500000  -0.4500000), wk =   0.0020000
        k(  437) = (   0.4500000   0.3500000  -0.3500000), wk =   0.0020000
        k(  438) = (   0.4500000   0.3500000  -0.2500000), wk =   0.0020000
        k(  439) = (   0.4500000   0.3500000  -0.1500000), wk =   0.0020000
        k(  440) = (   0.4500000   0.3500000  -0.0500000), wk =   0.0020000
        k(  441) = (   0.4500000   0.4500000   0.0500000), wk =   0.0020000
        k(  442) = (   0.4500000   0.4500000   0.1500000), wk =   0.0020000
        k(  443) = (   0.4500000   0.4500000   0.2500000), wk =   0.0020000
        k(  444) = (   0.4500000   0.4500000   0.3500000), wk =   0.0020000
        k(  445) = (   0.4500000   0.4500000   0.4500000), wk =   0.0020000
        k(  446) = (   0.4500000   0.4500000  -0.4500000), wk =   0.0020000
        k(  447) = (   0.4500000   0.4500000  -0.3500000), wk =   0.0020000
        k(  448) = (   0.4500000   0.4500000  -0.2500000), wk =   0.0020000
        k(  449) = (   0.4500000   0.4500000  -0.1500000), wk =   0.0020000
        k(  450) = (   0.4500000   0.4500000  -0.0500000), wk =   0.0020000
        k(  451) = (   0.4500000  -0.4500000   0.0500000), wk =   0.0020000
        k(  452) = (   0.4500000  -0.4500000   0.1500000), wk =   0.0020000
        k(  453) = (   0.4500000  -0.4500000   0.2500000), wk =   0.0020000
        k(  454) = (   0.4500000  -0.4500000   0.3500000), wk =   0.0020000
        k(  455) = (   0.4500000  -0.4500000   0.4500000), wk =   0.0020000
        k(  456) = (   0.4500000  -0.4500000  -0.4500000), wk =   0.0020000
        k(  457) = (   0.4500000  -0.4500000  -0.3500000), wk =   0.0020000
        k(  458) = (   0.4500000  -0.4500000  -0.2500000), wk =   0.0020000
        k(  459) = (   0.4500000  -0.4500000  -0.1500000), wk =   0.0020000
        k(  460) = (   0.4500000  -0.4500000  -0.0500000), wk =   0.0020000
        k(  461) = (   0.4500000  -0.3500000   0.0500000), wk =   0.0020000
        k(  462) = (   0.4500000  -0.3500000   0.1500000), wk =   0.0020000
        k(  463) = (   0.4500000  -0.3500000   0.2500000), wk =   0.0020000
        k(  464) = (   0.4500000  -0.3500000   0.3500000), wk =   0.0020000
        k(  465) = (   0.4500000  -0.3500000   0.4500000), wk =   0.0020000
        k(  466) = (   0.4500000  -0.3500000  -0.4500000), wk =   0.0020000
        k(  467) = (   0.4500000  -0.3500000  -0.3500000), wk =   0.0020000
        k(  468) = (   0.4500000  -0.3500000  -0.2500000), wk =   0.0020000
        k(  469) = (   0.4500000  -0.3500000  -0.1500000), wk =   0.0020000
        k(  470) = (   0.4500000  -0.3500000  -0.0500000), wk =   0.0020000
        k(  471) = (   0.4500000  -0.2500000   0.0500000), wk =   0.0020000
        k(  472) = (   0.4500000  -0.2500000   0.1500000), wk =   0.0020000
        k(  473) = (   0.4500000  -0.2500000   0.2500000), wk =   0.0020000
        k(  474) = (   0.4500000  -0.2500000   0.3500000), wk =   0.0020000
        k(  475) = (   0.4500000  -0.2500000   0.4500000), wk =   0.0020000
[...]
     0.0000   0.0000   0.0000   0.0000   0.0000   0.0000   0.0000   0.0000
     0.0000   0.0000   0.0000   0.0000   0.0000   0.0000   0.0000   0.0000

          k =-0.3025-0.6153 0.3553 (   907 PWs)   bands (ev):

   -28.4992 -28.4992 -28.4933 -28.4933 -27.0330 -27.0330 -27.0286 -27.0286
   -27.0221 -27.0221 -16.0932 -16.0930 -16.0877 -16.0877 -15.5116 -15.5112
   -15.5033 -15.5032 -15.4952 -15.4952  -1.9656  -1.9654   1.4351   1.4764
     3.6813   3.7955   5.7222   5.7779   6.1733   6.1968  11.9623  11.9635
    13.7008  13.7020  14.5681  14.5733  16.1121  16.1265  19.2193  19.2324
    20.1772  20.1817  20.4626  20.4631  21.7271  21.7487  22.7425  22.7438

     occupation numbers 
     1.0000   1.0000   1.0000   1.0000   1.0000   1.0000   1.0000   1.0000
     1.0000   1.0000   1.0000   1.0000   1.0000   1.0000   1.0000   1.0000
     1.0000   1.0000   1.0000   1.0000   1.0000   1.0000   1.0000   1.0000
     1.0000   1.0000   1.0000   1.0000   1.0000   1.0000   0.0000   0.0000
     0.0000   0.0000   0.0000   0.0000   0.0000   0.0000   0.0000   0.0000
     0.0000   0.0000   0.0000   0.0000   0.0000   0.0000   0.0000   0.0000

          k = 0.0605 0.3077 0.8882 (   906 PWs)   bands (ev):

   -28.4995 -28.4994 -28.4934 -28.4933 -27.0332 -27.0331 -27.0279 -27.0278
   -27.0232 -27.0232 -16.0925 -16.0922 -16.0885 -16.0883 -15.5099 -15.5092
   -15.5031 -15.5030 -15.4977 -15.4976  -2.0851  -2.0842   1.3755   1.4152
     4.0576   4.1998   5.2558   5.3610   6.9317   7.0100  12.0537  12.1425
    12.9555  13.0206  14.8724  14.9562  15.3370  15.4322  18.3942  18.4150
    19.8433  19.8518  21.5246  21.5430  21.8294  21.8941  22.2298  22.2586

     occupation numbers 
     1.0000   1.0000   1.0000   1.0000   1.0000   1.0000   1.0000   1.0000
     1.0000   1.0000   1.0000   1.0000   1.0000   1.0000   1.0000   1.0000
     1.0000   1.0000   1.0000   1.0000   1.0000   1.0000   1.0000   1.0000
     1.0000   1.0000   1.0000   1.0000   1.0000   1.0000   0.0000   0.0000
     0.0000   0.0000   0.0000   0.0000   0.0000   0.0000   0.0000   0.0000
     0.0000   0.0000   0.0000   0.0000   0.0000   0.0000   0.0000   0.0000

          k = 0.0202 0.2051 0.8289 (   906 PWs)   bands (ev):

   -28.5010 -28.5009 -28.4923 -28.4922 -27.0347 -27.0346 -27.0280 -27.0280
   -27.0223 -27.0222 -16.0954 -16.0947 -16.0866 -16.0861 -15.5108 -15.5098
   -15.5050 -15.5046 -15.4965 -15.4962  -2.1990  -2.1979   1.1234   1.1535
     4.7073   4.9687   5.0873   5.3348   7.9038   8.0056  11.0585  11.1055
    13.4810  13.5002  13.9769  14.0424  14.7968  14.8310  17.5983  17.6188
    19.4628  19.4949  20.3693  20.3938  21.9248  21.9493  22.7352  22.7641

     occupation numbers 
     1.0000   1.0000   1.0000   1.0000   1.0000   1.0000   1.0000   1.0000
     1.0000   1.0000   1.0000   1.0000   1.0000   1.0000   1.0000   1.0000
     1.0000   1.0000   1.0000   1.0000   1.0000   1.0000   1.0000   1.0000
     1.0000   1.0000   1.0000   1.0000   1.0000   1.0000   0.0000   0.0000
     0.0000   0.0000   0.0000   0.0000   0.0000   0.0000   0.0000   0.0000
     0.0000   0.0000   0.0000   0.0000   0.0000   0.0000   0.0000   0.0000

          k =-0.0202 0.1026 0.7697 (   899 PWs)   bands (ev):

   -28.4991 -28.4990 -28.4911 -28.4910 -27.0332 -27.0331 -27.0258 -27.0258
   -27.0212 -27.0212 -16.0909 -16.0903 -16.0838 -16.0834 -15.5083 -15.5078
   -15.4993 -15.4988 -15.4930 -15.4929  -2.2541  -2.2535   0.7624   0.7818
     5.1276   5.2267   6.1788   6.2896   8.5110   8.6642  10.0638  10.0817
    12.2450  12.3151  13.5358  13.5549  15.3844  15.3946  17.1946  17.2044
    18.5357  18.5649  20.6692  20.7198  21.3244  21.3477  22.8368  22.8601

     occupation numbers 
     1.0000   1.0000   1.0000   1.0000   1.0000   1.0000   1.0000   1.0000
     1.0000   1.0000   1.0000   1.0000   1.0000   1.0000   1.0000   1.0000
     1.0000   1.0000   1.0000   1.0000   1.0000   1.0000   1.0000   1.0000
     1.0000   1.0000   1.0000   1.0000   1.0000   1.0000   0.0000   0.0000
     0.0000   0.0000   0.0000   0.0000   0.0000   0.0000   0.0000   0.0000
     0.0000   0.0000   0.0000   0.0000   0.0000   0.0000   0.0000   0.0000

          k =-0.0605 0.0000 0.7105 (   897 PWs)   bands (ev):

   -28.4982 -28.4981 -28.4914 -28.4914 -27.0323 -27.0322 -27.0261 -27.0260
   -27.0211 -27.0210 -16.0895 -16.0894 -16.0833 -16.0830 -15.5080 -15.5078
   -15.4983 -15.4981 -15.4914 -15.4913  -2.2336  -2.2334   0.4424   0.4535
     5.7255   5.8041   7.1695   7.2003   8.1969   8.2440  10.4674  10.4796
    10.7212  10.7256  12.3743  12.3805  16.8821  16.8944  17.2599  17.2748
    18.0595  18.0648  20.8129  20.8351  21.2499  21.2803  22.7114  22.7188

     occupation numbers 
     1.0000   1.0000   1.0000   1.0000   1.0000   1.0000   1.0000   1.0000
     1.0000   1.0000   1.0000   1.0000   1.0000   1.0000   1.0000   1.0000
     1.0000   1.0000   1.0000   1.0000   1.0000   1.0000   1.0000   1.0000
     1.0000   1.0000   1.0000   1.0000   1.0000   1.0000   0.0000   0.0000
     0.0000   0.0000   0.0000   0.0000   0.0000   0.0000   0.0000   0.0000
     0.0000   0.0000   0.0000   0.0000   0.0000   0.0000   0.0000   0.0000

          k =-0.1008-0.1026 0.6513 (   897 PWs)   bands (ev):

   -28.4986 -28.4985 -28.4913 -28.4912 -27.0321 -27.0320 -27.0266 -27.0266
   -27.0212 -27.0212 -16.0904 -16.0899 -16.0829 -16.0826 -15.5068 -15.5063
   -15.4989 -15.4986 -15.4932 -15.4928  -2.1586  -2.1577   0.2912   0.3030
     6.2037   6.3564   6.6852   6.8287   8.2836   8.4438  10.0452  10.0691
    11.1780  11.2132  11.7320  11.7818  16.7908  16.8207  17.4716  17.4820
    19.5887  19.6272  19.9048  19.9407  20.6792  20.6981  22.4189  22.4562

     occupation numbers 
     1.0000   1.0000   1.0000   1.0000   1.0000   1.0000   1.0000   1.0000
     1.0000   1.0000   1.0000   1.0000   1.0000   1.0000   1.0000   1.0000
     1.0000   1.0000   1.0000   1.0000   1.0000   1.0000   1.0000   1.0000
     1.0000   1.0000   1.0000   1.0000   1.0000   1.0000   0.0000   0.0000
     0.0000   0.0000   0.0000   0.0000   0.0000   0.0000   0.0000   0.0000
     0.0000   0.0000   0.0000   0.0000   0.0000   0.0000   0.0000   0.0000

          k =-0.1815-0.1026 0.5329 (   896 PWs)   bands (ev):

   -28.4983 -28.4982 -28.4917 -28.4917 -27.0317 -27.0316 -27.0265 -27.0265
   -27.0219 -27.0218 -16.0900 -16.0896 -16.0830 -16.0826 -15.5065 -15.5059
   -15.4985 -15.4981 -15.4937 -15.4933  -2.2792  -2.2782   0.3233   0.3331
     6.5315   6.7605   7.3381   7.6371   8.3412   8.4855   9.8853   9.9012
    10.3533  10.3954  11.2106  11.3065  16.9488  16.9804  18.2312  18.2460
    18.8420  18.8657  19.9726  20.0044  20.2447  20.2929  22.0956  22.1324

     occupation numbers 
     1.0000   1.0000   1.0000   1.0000   1.0000   1.0000   1.0000   1.0000
     1.0000   1.0000   1.0000   1.0000   1.0000   1.0000   1.0000   1.0000
     1.0000   1.0000   1.0000   1.0000   1.0000   1.0000   1.0000   1.0000
     1.0000   1.0000   1.0000   1.0000   1.0000   1.0000   0.0000   0.0000
     0.0000   0.0000   0.0000   0.0000   0.0000   0.0000   0.0000   0.0000
     0.0000   0.0000   0.0000   0.0000   0.0000   0.0000   0.0000   0.0000

          k =-0.2218-0.2051 0.4737 (   899 PWs)   bands (ev):

   -28.4989 -28.4988 -28.4916 -28.4916 -27.0323 -27.0321 -27.0266 -27.0265
   -27.0221 -27.0220 -16.0912 -16.0902 -16.0839 -16.0836 -15.5064 -15.5050
   -15.5008 -15.5000 -15.4950 -15.4949  -2.2795  -2.2781   0.6958   0.7165
     5.5708   5.8104   6.4965   6.8113   7.4729   7.5978  10.7996  10.8530
    11.9457  12.0769  12.5460  12.7043  15.0177  15.0285  18.6923  18.7170
    19.0259  19.0450  20.1311  20.1473  20.7532  20.8129  22.1106  22.1233

     occupation numbers 
     1.0000   1.0000   1.0000   1.0000   1.0000   1.0000   1.0000   1.0000
     1.0000   1.0000   1.0000   1.0000   1.0000   1.0000   1.0000   1.0000
     1.0000   1.0000   1.0000   1.0000   1.0000   1.0000   1.0000   1.0000
     1.0000   1.0000   1.0000   1.0000   1.0000   1.0000   0.0000   0.0000
     0.0000   0.0000   0.0000   0.0000   0.0000   0.0000   0.0000   0.0000
     0.0000   0.0000   0.0000   0.0000   0.0000   0.0000   0.0000   0.0000

          k =-0.2622-0.3077 0.4145 (   902 PWs)   bands (ev):

   -28.4988 -28.4987 -28.4921 -28.4920 -27.0323 -27.0322 -27.0272 -27.0271
   -27.0219 -27.0219 -16.0916 -16.0906 -16.0853 -16.0848 -15.5075 -15.5063
   -15.5022 -15.5015 -15.4946 -15.4946  -2.2095  -2.2078   1.1687   1.2002
     4.6925   4.8764   5.7931   6.0264   6.7453   6.8451  12.0054  12.1374
    13.0261  13.1070  13.7454  13.8532  14.1757  14.3284  18.9581  18.9853
    20.0454  20.0730  20.4639  20.4744  20.9979  21.0053  21.4820  21.5371

     occupation numbers 
     1.0000   1.0000   1.0000   1.0000   1.0000   1.0000   1.0000   1.0000
     1.0000   1.0000   1.0000   1.0000   1.0000   1.0000   1.0000   1.0000
     1.0000   1.0000   1.0000   1.0000   1.0000   1.0000   1.0000   1.0000
     1.0000   1.0000   1.0000   1.0000   1.0000   1.0000   0.0000   0.0000
     0.0000   0.0000   0.0000   0.0000   0.0000   0.0000   0.0000   0.0000
     0.0000   0.0000   0.0000   0.0000   0.0000   0.0000   0.0000   0.0000

          k =-0.3025-0.4102 0.3553 (   905 PWs)   bands (ev):

   -28.4992 -28.4991 -28.4923 -28.4922 -27.0329 -27.0328 -27.0280 -27.0279
   -27.0214 -27.0214 -16.0918 -16.0912 -16.0869 -16.0867 -15.5086 -15.5080
   -15.5041 -15.5038 -15.4941 -15.4940  -2.0918  -2.0902   1.5677   1.5980
     4.0642   4.1631   5.4608   5.6087   6.1410   6.2296  11.8182  11.8727
    13.6763  13.6969  14.7268  14.7674  15.5267  15.5758  19.4583  19.4740
    19.7111  19.7344  21.2555  21.2756  21.6597  21.6943  22.1143  22.1529

     occupation numbers 
     1.0000   1.0000   1.0000   1.0000   1.0000   1.0000   1.0000   1.0000
     1.0000   1.0000   1.0000   1.0000   1.0000   1.0000   1.0000   1.0000
     1.0000   1.0000   1.0000   1.0000   1.0000   1.0000   1.0000   1.0000
     1.0000   1.0000   1.0000   1.0000   1.0000   1.0000   0.0000   0.0000
     0.0000   0.0000   0.0000   0.0000   0.0000   0.0000   0.0000   0.0000
     0.0000   0.0000   0.0000   0.0000   0.0000   0.0000   0.0000   0.0000

          k =-0.3428-0.5128 0.2961 (   899 PWs)   bands (ev):

   -28.4958 -28.4958 -28.4920 -28.4920 -27.0292 -27.0292 -27.0275 -27.0275
   -27.0199 -27.0199 -16.0872 -16.0871 -16.0836 -16.0836 -15.5066 -15.5066
   -15.4986 -15.4986 -15.4892 -15.4892  -1.9881  -1.9873   1.7299   1.7412
     3.7396   3.7649   5.4760   5.4919   5.8523   5.8527  11.4658  11.4660
    14.3964  14.4008  15.0854  15.0906  16.3646  16.3804  19.3894  19.3926
    20.3067  20.3255  21.4132  21.4434  21.6430  21.6486  22.4096  22.4141

     occupation numbers 
     1.0000   1.0000   1.0000   1.0000   1.0000   1.0000   1.0000   1.0000
     1.0000   1.0000   1.0000   1.0000   1.0000   1.0000   1.0000   1.0000
     1.0000   1.0000   1.0000   1.0000   1.0000   1.0000   1.0000   1.0000
     1.0000   1.0000   1.0000   1.0000   1.0000   1.0000   0.0000   0.0000
     0.0000   0.0000   0.0000   0.0000   0.0000   0.0000   0.0000   0.0000
     0.0000   0.0000   0.0000   0.0000   0.0000   0.0000   0.0000   0.0000

          k = 0.0202 0.4102 0.8289 (   908 PWs)   bands (ev):

   -28.4997 -28.4996 -28.4930 -28.4930 -27.0334 -27.0333 -27.0289 -27.0288
   -27.0218 -27.0218 -16.0941 -16.0936 -16.0877 -16.0875 -15.5118 -15.5116
   -15.5041 -15.5038 -15.4952 -15.4952  -1.9594  -1.9586   1.5737   1.6131
     3.6932   3.7855   5.3735   5.4813   6.1195   6.1995  11.7790  11.8291
    13.8920  13.8957  14.8504  14.8772  16.2355  16.2524  19.3823  19.3968
    19.8945  19.9099  21.1511  21.1814  21.9456  21.9716  22.6371  22.6737

     occupation numbers 
     1.0000   1.0000   1.0000   1.0000   1.0000   1.0000   1.0000   1.0000
     1.0000   1.0000   1.0000   1.0000   1.0000   1.0000   1.0000   1.0000
     1.0000   1.0000   1.0000   1.0000   1.0000   1.0000   1.0000   1.0000
     1.0000   1.0000   1.0000   1.0000   1.0000   1.0000   0.0000   0.0000
     0.0000   0.0000   0.0000   0.0000   0.0000   0.0000   0.0000   0.0000
     0.0000   0.0000   0.0000   0.0000   0.0000   0.0000   0.0000   0.0000

          k =-0.0202 0.3077 0.7697 (   911 PWs)   bands (ev):

   -28.5015 -28.5014 -28.4937 -28.4937 -27.0350 -27.0349 -27.0300 -27.0300
   -27.0227 -27.0227 -16.0972 -16.0962 -16.0898 -16.0894 -15.5132 -15.5122
   -15.5087 -15.5082 -15.4973 -15.4972  -2.0068  -2.0054   1.1556   1.1933
     4.1625   4.2752   5.5267   5.6372   6.7441   6.8319  12.2451  12.4201
    13.1176  13.2540  13.9770  14.0012  15.1464  15.1927  18.3351  18.3594
    20.1683  20.1856  21.0580  21.1110  21.9826  22.0459  22.3408  22.3756

     occupation numbers 
     1.0000   1.0000   1.0000   1.0000   1.0000   1.0000   1.0000   1.0000
     1.0000   1.0000   1.0000   1.0000   1.0000   1.0000   1.0000   1.0000
     1.0000   1.0000   1.0000   1.0000   1.0000   1.0000   1.0000   1.0000
     1.0000   1.0000   1.0000   1.0000   1.0000   1.0000   0.0000   0.0000
     0.0000   0.0000   0.0000   0.0000   0.0000   0.0000   0.0000   0.0000
     0.0000   0.0000   0.0000   0.0000   0.0000   0.0000   0.0000   0.0000

          k =-0.0605 0.2051 0.7105 (   905 PWs)   bands (ev):

   -28.4999 -28.4998 -28.4928 -28.4927 -27.0331 -27.0330 -27.0283 -27.0282
   -27.0226 -27.0226 -16.0930 -16.0920 -16.0877 -16.0873 -15.5084 -15.5074
   -15.5044 -15.5038 -15.4974 -15.4972  -2.0838  -2.0824   0.6603   0.6843
     5.0795   5.2041   5.9699   6.0850   7.5023   7.6101  11.1759  11.2523
    12.4774  12.4981  13.4841  13.5304  14.8559  14.8665  17.6873  17.7077
    19.7467  19.7768  20.6496  20.6938  21.3574  21.3791  22.8736  22.8871

     occupation numbers 
     1.0000   1.0000   1.0000   1.0000   1.0000   1.0000   1.0000   1.0000
     1.0000   1.0000   1.0000   1.0000   1.0000   1.0000   1.0000   1.0000
     1.0000   1.0000   1.0000   1.0000   1.0000   1.0000   1.0000   1.0000
     1.0000   1.0000   1.0000   1.0000   1.0000   1.0000   0.0000   0.0000
     0.0000   0.0000   0.0000   0.0000   0.0000   0.0000   0.0000   0.0000
     0.0000   0.0000   0.0000   0.0000   0.0000   0.0000   0.0000   0.0000

          k =-0.1008 0.1026 0.6513 (   897 PWs)   bands (ev):

   -28.4986 -28.4985 -28.4913 -28.4912 -27.0321 -27.0320 -27.0266 -27.0266
   -27.0212 -27.0212 -16.0904 -16.0899 -16.0829 -16.0826 -15.5068 -15.5063
   -15.4989 -15.4986 -15.4932 -15.4928  -2.1586  -2.1577   0.2912   0.3030
     6.2037   6.3564   6.6852   6.8287   8.2836   8.4438  10.0452  10.0691
    11.1780  11.2132  11.7320  11.7818  16.7908  16.8207  17.4716  17.4820
    19.5887  19.6272  19.9048  19.9407  20.6792  20.6981  22.4189  22.4562

     occupation numbers 
     1.0000   1.0000   1.0000   1.0000   1.0000   1.0000   1.0000   1.0000
     1.0000   1.0000   1.0000   1.0000   1.0000   1.0000   1.0000   1.0000
     1.0000   1.0000   1.0000   1.0000   1.0000   1.0000   1.0000   1.0000
     1.0000   1.0000   1.0000   1.0000   1.0000   1.0000   0.0000   0.0000
     0.0000   0.0000   0.0000   0.0000   0.0000   0.0000   0.0000   0.0000
     0.0000   0.0000   0.0000   0.0000   0.0000   0.0000   0.0000   0.0000

          k =-0.1412 0.0000 0.5921 (   894 PWs)   bands (ev):

   -28.4980 -28.4980 -28.4910 -28.4910 -27.0312 -27.0312 -27.0265 -27.0265
   -27.0209 -27.0209 -16.0887 -16.0887 -16.0817 -16.0817 -15.5050 -15.5050
   -15.4969 -15.4968 -15.4930 -15.4929  -2.2277  -2.2270   0.1712   0.1737
     7.0545   7.0919   7.5594   7.5753   8.7046   8.7350   9.9447   9.9723
    10.1572  10.1890  10.2075  10.2769  17.4237  17.4251  18.7484  18.7786
    19.4605  19.5156  19.7513  19.7552  20.2618  20.2831  20.3248  20.3284

     occupation numbers 
     1.0000   1.0000   1.0000   1.0000   1.0000   1.0000   1.0000   1.0000
     1.0000   1.0000   1.0000   1.0000   1.0000   1.0000   1.0000   1.0000
     1.0000   1.0000   1.0000   1.0000   1.0000   1.0000   1.0000   1.0000
     1.0000   1.0000   1.0000   1.0000   1.0000   1.0000   0.0000   0.0000
     0.0000   0.0000   0.0000   0.0000   0.0000   0.0000   0.0000   0.0000
     0.0000   0.0000   0.0000   0.0000   0.0000   0.0000   0.0000   0.0000

     the Fermi energy is     9.3366 ev

!    total energy              =    -820.01223121 Ry
     Harris-Foulkes estimate   =    -820.01223030 Ry
     estimated scf accuracy    <          1.8E-09 Ry

     total all-electron energy =    -17783.171163 Ry

     The total energy is the sum of the following terms:

     one-electron contribution =    -228.18867685 Ry
     hartree contribution      =     137.23084364 Ry
     xc contribution           =    -101.48645369 Ry
     ewald contribution        =    -225.97213060 Ry
     one-center paw contrib.   =    -401.59584776 Ry
     smearing contrib. (-TS)   =       0.00003406 Ry

     convergence has been achieved in   8 iterations

     Writing output data file pwo.save

     init_run     :      6.02s CPU      6.24s WALL (       1 calls)
     electrons    :    198.18s CPU    202.67s WALL (       1 calls)

     Called by init_run:
     wfcinit      :      5.44s CPU      5.64s WALL (       1 calls)
     wfcinit:atom :      0.03s CPU      0.03s WALL (     500 calls)
     wfcinit:wfcr :      5.33s CPU      5.53s WALL (     500 calls)
     potinit      :      0.18s CPU      0.19s WALL (       1 calls)

     Called by electrons:
     c_bands      :    166.12s CPU    169.57s WALL (       9 calls)
     sum_band     :     30.27s CPU     31.04s WALL (       9 calls)
     v_of_rho     :      0.04s CPU      0.04s WALL (       9 calls)
     v_h          :      0.00s CPU      0.00s WALL (       9 calls)
     v_xc         :      0.04s CPU      0.04s WALL (       9 calls)
     newd         :      0.72s CPU      0.73s WALL (       9 calls)
     PAW_pot      :      1.19s CPU      1.21s WALL (       9 calls)
     mix_rho      :      0.01s CPU      0.02s WALL (       9 calls)

     Called by c_bands:
     init_us_2    :      0.55s CPU      0.54s WALL (    9500 calls)
     cegterg      :    163.11s CPU    166.50s WALL (    4500 calls)

     Called by sum_band:
     sum_band:bec :     10.89s CPU     10.91s WALL (    4500 calls)
     addusdens    :      0.37s CPU      0.38s WALL (       9 calls)

     Called by *egterg:
     h_psi        :     83.06s CPU     86.46s WALL (   17341 calls)
     s_psi        :      8.33s CPU      8.31s WALL (   17341 calls)
     g_psi        :      0.20s CPU      0.22s WALL (   12341 calls)
     cdiaghg      :     63.50s CPU     63.61s WALL (   16341 calls)
     cegterg:over :      4.85s CPU      4.87s WALL (   12341 calls)
     cegterg:upda :      2.65s CPU      2.63s WALL (   12341 calls)
     cegterg:last :      1.56s CPU      1.55s WALL (    4500 calls)
     cdiaghg:chol :      2.86s CPU      2.83s WALL (   16341 calls)
     cdiaghg:inve :      2.59s CPU      2.61s WALL (   16341 calls)
     cdiaghg:para :      5.01s CPU      5.02s WALL (   32682 calls)

     Called by h_psi:
     h_psi:pot    :     82.97s CPU     86.28s WALL (   17341 calls)
     h_psi:calbec :      4.87s CPU      5.02s WALL (   17341 calls)
     vloc_psi     :     69.56s CPU     72.58s WALL (   17341 calls)
     add_vuspsi   :      8.52s CPU      8.63s WALL (   17341 calls)

     General routines
     calbec       :      6.73s CPU      6.91s WALL (   21841 calls)
     fft          :      0.07s CPU      0.08s WALL (     273 calls)
     ffts         :      0.02s CPU      0.02s WALL (      72 calls)
     fftw         :     75.95s CPU     79.42s WALL ( 2515144 calls)
     interpolate  :      0.03s CPU      0.03s WALL (      72 calls)
     davcio       :      0.01s CPU      0.02s WALL (     500 calls)

     Parallel routines
     fft_scatter  :     52.15s CPU     46.18s WALL ( 2515489 calls)

     PAW routines
     PAW_pot      :      1.19s CPU      1.21s WALL (       9 calls)

     PWSCF        :  3m26.74s CPU     4m23.17s WALL


   This run was terminated on:  10:30: 9  13Jan2017            

=------------------------------------------------------------------------------=
   JOB DONE.
=------------------------------------------------------------------------------=
