
     Program PWSCF v.6.0 (svn rev. 13079) starts on  4Dec2016 at 18:58:40 

     This program is part of the open-source Quantum ESPRESSO suite
     for quantum simulation of materials; please cite
         "P. Giannozzi et al., J. Phys.:Condens. Matter 21 395502 (2009);
          URL http://www.quantum-espresso.org", 
     in publications or presentations arising from this work. More details at
     http://www.quantum-espresso.org/quote

     Parallel version (MPI), running on    24 processors
     R & G space division:  proc/nbgrp/npool/nimage =      24
     Waiting for input...
     Reading input from standard input
Warning: card &IONS ignored
Warning: card     ION_DYNAMICS='BFGS', ignored
Warning: card / ignored
Warning: card &CELL ignored
Warning: card     CELL_DYNAMICS = 'BFGS' ignored
Warning: card     PRESS = 0 ignored
Warning: card / ignored

     Current dimensions of program PWSCF are:
     Max number of different atomic species (ntypx) = 10
     Max number of k-points (npk) =  40000
     Max angular momentum in pseudopotentials (lmaxx) =  3
               file Ge.pbesol-dn-kjpaw_psl.0.2.2.UPF: wavefunction(s)  4P 3D renormalized
               file Te.pbesol-dn-kjpaw_psl.0.2.2.UPF: wavefunction(s)  5S 5P 4D renormalized

     Subspace diagonalization in iterative solution of the eigenvalue problem:
     one sub-group per band group will be used
     scalapack distributed-memory algorithm (size of sub-group:  3*  3 procs)


     Parallelization info
     --------------------
     sticks:   dense  smooth     PW     G-vecs:    dense   smooth      PW
     Min          46      20      6                 1004      297      56
     Max          47      21      7                 1007      301      60
     Sum        1109     499    163                24123     7181    1405



     bravais-lattice index     =            0
     lattice parameter (alat)  =       8.0899  a.u.
     unit-cell volume          =     360.3090 (a.u.)^3
     number of atoms/cell      =            2
     number of atomic types    =            2
     number of electrons       =        30.00
     number of Kohn-Sham states=           24
     kinetic-energy cutoff     =      28.0000  Ry
     charge density cutoff     =     250.0000  Ry
     convergence threshold     =      1.0E-08
     mixing beta               =       0.3000
     number of iterations used =            8  plain     mixing
     Exchange-correlation      =  SLA  PW   PSX  PSC ( 1  4 10  8 0 0)

     celldm(1)=   8.089908  celldm(2)=   0.000000  celldm(3)=   0.000000
     celldm(4)=   0.000000  celldm(5)=   0.000000  celldm(6)=   0.000000

     crystal axes: (cart. coord. in units of alat)
               a(1) = (   0.562962   0.000000   0.826483 )  
               a(2) = (  -0.281481   0.487540   0.826483 )  
               a(3) = (  -0.281481  -0.487540   0.826483 )  

     reciprocal axes: (cart. coord. in units 2 pi/alat)
               b(1) = (  1.184212  0.000000  0.403316 )  
               b(2) = ( -0.592106  1.025558  0.403316 )  
               b(3) = ( -0.592106 -1.025558  0.403316 )  


     PseudoPot. # 1 for Ge read from file:
     ./Ge.pbesol-dn-kjpaw_psl.0.2.2.UPF
     MD5 check sum: 9c04f34039a3b392f64eba0a0ab43710
     Pseudo is Projector augmented-wave + core cor, Zval = 14.0
     Generated using "atomic" code by A. Dal Corso  v.5.0.2 svn rev. 9415
     Shape of augmentation charge: PSQ
     Using radial grid of 1207 points,  6 beta functions with: 
                l(1) =   0
                l(2) =   0
                l(3) =   1
                l(4) =   1
                l(5) =   2
                l(6) =   2
     Q(r) pseudized with 0 coefficients 


     PseudoPot. # 2 for Te read from file:
     ./Te.pbesol-dn-kjpaw_psl.0.2.2.UPF
     MD5 check sum: 3b4fa33727d9614a94103dec3e2d2e3a
     Pseudo is Projector augmented-wave + core cor, Zval = 16.0
     Generated using "atomic" code by A. Dal Corso  v.5.0.2 svn rev. 9415
     Shape of augmentation charge: PSQ
     Using radial grid of 1245 points,  6 beta functions with: 
                l(1) =   0
                l(2) =   0
                l(3) =   1
                l(4) =   1
                l(5) =   2
                l(6) =   2
     Q(r) pseudized with 0 coefficients 


     atomic species   valence    mass     pseudopotential
        Ge            14.00    50.00000     Ge( 1.00)
        Te            16.00    50.00000     Te( 1.00)

     Starting magnetic structure 
     atomic species   magnetization
        Ge          -0.001
        Te           0.000

     No symmetry found


                                    s                        frac. trans.

      isym =  1     identity                                     

 cryst.   s( 1) = (     1          0          0      )
                  (     0          1          0      )
                  (     0          0          1      )

 cart.    s( 1) = (  1.0000000  0.0000000  0.0000000 )
                  (  0.0000000  1.0000000  0.0000000 )
                  (  0.0000000  0.0000000  1.0000000 )


   Cartesian axes

     site n.     atom                  positions (alat units)
         1           Te  tau(   1) = (  -0.0000000   0.0000000   1.2973781  )
         2           Ge  tau(   2) = (   0.0000000   0.0000000  -0.0055858  )

   Crystallographic axes

     site n.     atom                  positions (cryst. coord.)
         1           Te  tau(   1) = (  0.5232529  0.5232529  0.5232529  )
         2           Ge  tau(   2) = ( -0.0022529 -0.0022529 -0.0022529  )

     number of k points=   500  Marzari-Vanderbilt smearing, width (Ry)=  0.0100
                       cart. coord. in units 2pi/alat
        k(    1) = (   0.0000000   0.0000000   0.0604973), wk =   0.0020000
        k(    2) = (  -0.0592106  -0.1025558   0.1008289), wk =   0.0020000
        k(    3) = (  -0.1184212  -0.2051115   0.1411605), wk =   0.0020000
        k(    4) = (  -0.1776318  -0.3076673   0.1814920), wk =   0.0020000
        k(    5) = (  -0.2368424  -0.4102230   0.2218236), wk =   0.0020000
        k(    6) = (   0.2960530   0.5127788  -0.1411605), wk =   0.0020000
        k(    7) = (   0.2368424   0.4102230  -0.1008289), wk =   0.0020000
        k(    8) = (   0.1776318   0.3076673  -0.0604973), wk =   0.0020000
        k(    9) = (   0.1184212   0.2051115  -0.0201658), wk =   0.0020000
        k(   10) = (   0.0592106   0.1025558   0.0201658), wk =   0.0020000
        k(   11) = (  -0.0592106   0.1025558   0.1008289), wk =   0.0020000
        k(   12) = (  -0.1184212   0.0000000   0.1411605), wk =   0.0020000
        k(   13) = (  -0.1776318  -0.1025558   0.1814920), wk =   0.0020000
        k(   14) = (  -0.2368424  -0.2051115   0.2218236), wk =   0.0020000
        k(   15) = (  -0.2960530  -0.3076673   0.2621552), wk =   0.0020000
        k(   16) = (   0.2368424   0.6153345  -0.1008289), wk =   0.0020000
        k(   17) = (   0.1776318   0.5127788  -0.0604973), wk =   0.0020000
        k(   18) = (   0.1184212   0.4102230  -0.0201658), wk =   0.0020000
        k(   19) = (   0.0592106   0.3076673   0.0201658), wk =   0.0020000
        k(   20) = (  -0.0000000   0.2051115   0.0604973), wk =   0.0020000
        k(   21) = (  -0.1184212   0.2051115   0.1411605), wk =   0.0020000
        k(   22) = (  -0.1776318   0.1025558   0.1814920), wk =   0.0020000
        k(   23) = (  -0.2368424   0.0000000   0.2218236), wk =   0.0020000
        k(   24) = (  -0.2960530  -0.1025558   0.2621552), wk =   0.0020000
        k(   25) = (  -0.3552636  -0.2051115   0.3024867), wk =   0.0020000
        k(   26) = (   0.1776318   0.7178903  -0.0604973), wk =   0.0020000
        k(   27) = (   0.1184212   0.6153345  -0.0201658), wk =   0.0020000
        k(   28) = (   0.0592106   0.5127788   0.0201658), wk =   0.0020000
        k(   29) = (  -0.0000000   0.4102230   0.0604973), wk =   0.0020000
        k(   30) = (  -0.0592106   0.3076673   0.1008289), wk =   0.0020000
        k(   31) = (  -0.1776318   0.3076673   0.1814920), wk =   0.0020000
        k(   32) = (  -0.2368424   0.2051115   0.2218236), wk =   0.0020000
        k(   33) = (  -0.2960530   0.1025558   0.2621552), wk =   0.0020000
        k(   34) = (  -0.3552636   0.0000000   0.3024867), wk =   0.0020000
        k(   35) = (  -0.4144741  -0.1025558   0.3428183), wk =   0.0020000
        k(   36) = (   0.1184212   0.8204460  -0.0201658), wk =   0.0020000
        k(   37) = (   0.0592106   0.7178903   0.0201658), wk =   0.0020000
        k(   38) = (   0.0000000   0.6153345   0.0604973), wk =   0.0020000
        k(   39) = (  -0.0592106   0.5127788   0.1008289), wk =   0.0020000
        k(   40) = (  -0.1184212   0.4102230   0.1411605), wk =   0.0020000
        k(   41) = (  -0.2368424   0.4102230   0.2218236), wk =   0.0020000
        k(   42) = (  -0.2960530   0.3076673   0.2621552), wk =   0.0020000
        k(   43) = (  -0.3552636   0.2051115   0.3024867), wk =   0.0020000
        k(   44) = (  -0.4144741   0.1025558   0.3428183), wk =   0.0020000
        k(   45) = (  -0.4736847   0.0000000   0.3831499), wk =   0.0020000
        k(   46) = (   0.0592106   0.9230018   0.0201658), wk =   0.0020000
        k(   47) = (  -0.0000000   0.8204460   0.0604973), wk =   0.0020000
        k(   48) = (  -0.0592106   0.7178903   0.1008289), wk =   0.0020000
        k(   49) = (  -0.1184212   0.6153345   0.1411605), wk =   0.0020000
        k(   50) = (  -0.1776318   0.5127788   0.1814920), wk =   0.0020000
        k(   51) = (   0.2960530  -0.5127788  -0.1411605), wk =   0.0020000
        k(   52) = (   0.2368424  -0.6153345  -0.1008289), wk =   0.0020000
        k(   53) = (   0.1776318  -0.7178903  -0.0604973), wk =   0.0020000
        k(   54) = (   0.1184212  -0.8204460  -0.0201658), wk =   0.0020000
        k(   55) = (   0.0592106  -0.9230018   0.0201658), wk =   0.0020000
        k(   56) = (   0.5921059   0.0000000  -0.3428183), wk =   0.0020000
        k(   57) = (   0.5328953  -0.1025558  -0.3024867), wk =   0.0020000
        k(   58) = (   0.4736847  -0.2051115  -0.2621552), wk =   0.0020000
        k(   59) = (   0.4144741  -0.3076673  -0.2218236), wk =   0.0020000
        k(   60) = (   0.3552636  -0.4102230  -0.1814920), wk =   0.0020000
        k(   61) = (   0.2368424  -0.4102230  -0.1008289), wk =   0.0020000
        k(   62) = (   0.1776318  -0.5127788  -0.0604973), wk =   0.0020000
        k(   63) = (   0.1184212  -0.6153345  -0.0201658), wk =   0.0020000
        k(   64) = (   0.0592106  -0.7178903   0.0201658), wk =   0.0020000
        k(   65) = (  -0.0000000  -0.8204460   0.0604973), wk =   0.0020000
        k(   66) = (   0.5328953   0.1025558  -0.3024867), wk =   0.0020000
        k(   67) = (   0.4736847   0.0000000  -0.2621552), wk =   0.0020000
        k(   68) = (   0.4144741  -0.1025558  -0.2218236), wk =   0.0020000
        k(   69) = (   0.3552636  -0.2051115  -0.1814920), wk =   0.0020000
        k(   70) = (   0.2960530  -0.3076673  -0.1411605), wk =   0.0020000
        k(   71) = (   0.1776318  -0.3076673  -0.0604973), wk =   0.0020000
        k(   72) = (   0.1184212  -0.4102230  -0.0201658), wk =   0.0020000
        k(   73) = (   0.0592106  -0.5127788   0.0201658), wk =   0.0020000
        k(   74) = (   0.0000000  -0.6153345   0.0604973), wk =   0.0020000
        k(   75) = (  -0.0592106  -0.7178903   0.1008289), wk =   0.0020000
        k(   76) = (   0.4736847   0.2051115  -0.2621552), wk =   0.0020000
        k(   77) = (   0.4144741   0.1025558  -0.2218236), wk =   0.0020000
        k(   78) = (   0.3552636   0.0000000  -0.1814920), wk =   0.0020000
        k(   79) = (   0.2960530  -0.1025558  -0.1411605), wk =   0.0020000
        k(   80) = (   0.2368424  -0.2051115  -0.1008289), wk =   0.0020000
        k(   81) = (   0.1184212  -0.2051115  -0.0201658), wk =   0.0020000
        k(   82) = (   0.0592106  -0.3076673   0.0201658), wk =   0.0020000
        k(   83) = (  -0.0000000  -0.4102230   0.0604973), wk =   0.0020000
        k(   84) = (  -0.0592106  -0.5127788   0.1008289), wk =   0.0020000
        k(   85) = (  -0.1184212  -0.6153345   0.1411605), wk =   0.0020000
        k(   86) = (   0.4144741   0.3076673  -0.2218236), wk =   0.0020000
        k(   87) = (   0.3552636   0.2051115  -0.1814920), wk =   0.0020000
        k(   88) = (   0.2960530   0.1025558  -0.1411605), wk =   0.0020000
        k(   89) = (   0.2368424   0.0000000  -0.1008289), wk =   0.0020000
        k(   90) = (   0.1776318  -0.1025558  -0.0604973), wk =   0.0020000
        k(   91) = (   0.0592106  -0.1025558   0.0201658), wk =   0.0020000
        k(   92) = (  -0.0000000  -0.2051115   0.0604973), wk =   0.0020000
        k(   93) = (  -0.0592106  -0.3076673   0.1008289), wk =   0.0020000
        k(   94) = (  -0.1184212  -0.4102230   0.1411605), wk =   0.0020000
        k(   95) = (  -0.1776318  -0.5127788   0.1814920), wk =   0.0020000
        k(   96) = (   0.3552636   0.4102230  -0.1814920), wk =   0.0020000
        k(   97) = (   0.2960530   0.3076673  -0.1411605), wk =   0.0020000
        k(   98) = (   0.2368424   0.2051115  -0.1008289), wk =   0.0020000
        k(   99) = (   0.1776318   0.1025558  -0.0604973), wk =   0.0020000
        k(  100) = (   0.1184212   0.0000000  -0.0201658), wk =   0.0020000
        k(  101) = (   0.1184212   0.0000000   0.1008289), wk =   0.0020000
        k(  102) = (   0.0592106  -0.1025558   0.1411605), wk =   0.0020000
        k(  103) = (   0.0000000  -0.2051115   0.1814920), wk =   0.0020000
        k(  104) = (  -0.0592106  -0.3076673   0.2218236), wk =   0.0020000
        k(  105) = (  -0.1184212  -0.4102230   0.2621552), wk =   0.0020000
        k(  106) = (   0.4144741   0.5127788  -0.1008289), wk =   0.0020000
        k(  107) = (   0.3552636   0.4102230  -0.0604973), wk =   0.0020000
        k(  108) = (   0.2960530   0.3076673  -0.0201658), wk =   0.0020000
        k(  109) = (   0.2368424   0.2051115   0.0201658), wk =   0.0020000
        k(  110) = (   0.1776318   0.1025558   0.0604973), wk =   0.0020000
        k(  111) = (   0.0592106   0.1025558   0.1411605), wk =   0.0020000
        k(  112) = (   0.0000000   0.0000000   0.1814920), wk =   0.0020000
        k(  113) = (  -0.0592106  -0.1025558   0.2218236), wk =   0.0020000
        k(  114) = (  -0.1184212  -0.2051115   0.2621552), wk =   0.0020000
        k(  115) = (  -0.1776318  -0.3076673   0.3024867), wk =   0.0020000
        k(  116) = (   0.3552636   0.6153345  -0.0604973), wk =   0.0020000
        k(  117) = (   0.2960530   0.5127788  -0.0201658), wk =   0.0020000
        k(  118) = (   0.2368424   0.4102230   0.0201658), wk =   0.0020000
        k(  119) = (   0.1776318   0.3076673   0.0604973), wk =   0.0020000
        k(  120) = (   0.1184212   0.2051115   0.1008289), wk =   0.0020000
        k(  121) = (   0.0000000   0.2051115   0.1814920), wk =   0.0020000
        k(  122) = (  -0.0592106   0.1025558   0.2218236), wk =   0.0020000
        k(  123) = (  -0.1184212   0.0000000   0.2621552), wk =   0.0020000
        k(  124) = (  -0.1776318  -0.1025558   0.3024867), wk =   0.0020000
        k(  125) = (  -0.2368424  -0.2051115   0.3428183), wk =   0.0020000
        k(  126) = (   0.2960530   0.7178903  -0.0201658), wk =   0.0020000
        k(  127) = (   0.2368424   0.6153345   0.0201658), wk =   0.0020000
        k(  128) = (   0.1776318   0.5127788   0.0604973), wk =   0.0020000
        k(  129) = (   0.1184212   0.4102230   0.1008289), wk =   0.0020000
        k(  130) = (   0.0592106   0.3076673   0.1411605), wk =   0.0020000
        k(  131) = (  -0.0592106   0.3076673   0.2218236), wk =   0.0020000
        k(  132) = (  -0.1184212   0.2051115   0.2621552), wk =   0.0020000
        k(  133) = (  -0.1776318   0.1025558   0.3024867), wk =   0.0020000
        k(  134) = (  -0.2368424   0.0000000   0.3428183), wk =   0.0020000
        k(  135) = (  -0.2960530  -0.1025558   0.3831499), wk =   0.0020000
        k(  136) = (   0.2368424   0.8204460   0.0201658), wk =   0.0020000
        k(  137) = (   0.1776318   0.7178903   0.0604973), wk =   0.0020000
        k(  138) = (   0.1184212   0.6153345   0.1008289), wk =   0.0020000
        k(  139) = (   0.0592106   0.5127788   0.1411605), wk =   0.0020000
        k(  140) = (  -0.0000000   0.4102230   0.1814920), wk =   0.0020000
        k(  141) = (  -0.1184212   0.4102230   0.2621552), wk =   0.0020000
        k(  142) = (  -0.1776318   0.3076673   0.3024867), wk =   0.0020000
        k(  143) = (  -0.2368424   0.2051115   0.3428183), wk =   0.0020000
        k(  144) = (  -0.2960530   0.1025558   0.3831499), wk =   0.0020000
        k(  145) = (  -0.3552636   0.0000000   0.4234814), wk =   0.0020000
        k(  146) = (   0.1776318   0.9230018   0.0604973), wk =   0.0020000
        k(  147) = (   0.1184212   0.8204460   0.1008289), wk =   0.0020000
        k(  148) = (   0.0592106   0.7178903   0.1411605), wk =   0.0020000
        k(  149) = (  -0.0000000   0.6153345   0.1814920), wk =   0.0020000
        k(  150) = (  -0.0592106   0.5127788   0.2218236), wk =   0.0020000
        k(  151) = (   0.4144741  -0.5127788  -0.1008289), wk =   0.0020000
        k(  152) = (   0.3552636  -0.6153345  -0.0604973), wk =   0.0020000
        k(  153) = (   0.2960530  -0.7178903  -0.0201658), wk =   0.0020000
        k(  154) = (   0.2368424  -0.8204460   0.0201658), wk =   0.0020000
        k(  155) = (   0.1776318  -0.9230018   0.0604973), wk =   0.0020000
        k(  156) = (   0.7105271   0.0000000  -0.3024867), wk =   0.0020000
        k(  157) = (   0.6513165  -0.1025558  -0.2621552), wk =   0.0020000
        k(  158) = (   0.5921059  -0.2051115  -0.2218236), wk =   0.0020000
        k(  159) = (   0.5328953  -0.3076673  -0.1814920), wk =   0.0020000
        k(  160) = (   0.4736847  -0.4102230  -0.1411605), wk =   0.0020000
        k(  161) = (   0.3552636  -0.4102230  -0.0604973), wk =   0.0020000
        k(  162) = (   0.2960530  -0.5127788  -0.0201658), wk =   0.0020000
        k(  163) = (   0.2368424  -0.6153345   0.0201658), wk =   0.0020000
        k(  164) = (   0.1776318  -0.7178903   0.0604973), wk =   0.0020000
        k(  165) = (   0.1184212  -0.8204460   0.1008289), wk =   0.0020000
        k(  166) = (   0.6513165   0.1025558  -0.2621552), wk =   0.0020000
        k(  167) = (   0.5921059   0.0000000  -0.2218236), wk =   0.0020000
        k(  168) = (   0.5328953  -0.1025558  -0.1814920), wk =   0.0020000
        k(  169) = (   0.4736847  -0.2051115  -0.1411605), wk =   0.0020000
        k(  170) = (   0.4144741  -0.3076673  -0.1008289), wk =   0.0020000
        k(  171) = (   0.2960530  -0.3076673  -0.0201658), wk =   0.0020000
        k(  172) = (   0.2368424  -0.4102230   0.0201658), wk =   0.0020000
        k(  173) = (   0.1776318  -0.5127788   0.0604973), wk =   0.0020000
        k(  174) = (   0.1184212  -0.6153345   0.1008289), wk =   0.0020000
        k(  175) = (   0.0592106  -0.7178903   0.1411605), wk =   0.0020000
        k(  176) = (   0.5921059   0.2051115  -0.2218236), wk =   0.0020000
        k(  177) = (   0.5328953   0.1025558  -0.1814920), wk =   0.0020000
        k(  178) = (   0.4736847   0.0000000  -0.1411605), wk =   0.0020000
        k(  179) = (   0.4144741  -0.1025558  -0.1008289), wk =   0.0020000
        k(  180) = (   0.3552636  -0.2051115  -0.0604973), wk =   0.0020000
        k(  181) = (   0.2368424  -0.2051115   0.0201658), wk =   0.0020000
        k(  182) = (   0.1776318  -0.3076673   0.0604973), wk =   0.0020000
        k(  183) = (   0.1184212  -0.4102230   0.1008289), wk =   0.0020000
        k(  184) = (   0.0592106  -0.5127788   0.1411605), wk =   0.0020000
        k(  185) = (  -0.0000000  -0.6153345   0.1814920), wk =   0.0020000
        k(  186) = (   0.5328953   0.3076673  -0.1814920), wk =   0.0020000
        k(  187) = (   0.4736847   0.2051115  -0.1411605), wk =   0.0020000
        k(  188) = (   0.4144741   0.1025558  -0.1008289), wk =   0.0020000
        k(  189) = (   0.3552636   0.0000000  -0.0604973), wk =   0.0020000
        k(  190) = (   0.2960530  -0.1025558  -0.0201658), wk =   0.0020000
        k(  191) = (   0.1776318  -0.1025558   0.0604973), wk =   0.0020000
        k(  192) = (   0.1184212  -0.2051115   0.1008289), wk =   0.0020000
        k(  193) = (   0.0592106  -0.3076673   0.1411605), wk =   0.0020000
        k(  194) = (   0.0000000  -0.4102230   0.1814920), wk =   0.0020000
        k(  195) = (  -0.0592106  -0.5127788   0.2218236), wk =   0.0020000
        k(  196) = (   0.4736847   0.4102230  -0.1411605), wk =   0.0020000
        k(  197) = (   0.4144741   0.3076673  -0.1008289), wk =   0.0020000
        k(  198) = (   0.3552636   0.2051115  -0.0604973), wk =   0.0020000
        k(  199) = (   0.2960530   0.1025558  -0.0201658), wk =   0.0020000
        k(  200) = (   0.2368424   0.0000000   0.0201658), wk =   0.0020000
        k(  201) = (   0.2368424   0.0000000   0.1411605), wk =   0.0020000
        k(  202) = (   0.1776318  -0.1025558   0.1814920), wk =   0.0020000
        k(  203) = (   0.1184212  -0.2051115   0.2218236), wk =   0.0020000
        k(  204) = (   0.0592106  -0.3076673   0.2621552), wk =   0.0020000
        k(  205) = (  -0.0000000  -0.4102230   0.3024867), wk =   0.0020000
        k(  206) = (   0.5328953   0.5127788  -0.0604973), wk =   0.0020000
        k(  207) = (   0.4736847   0.4102230  -0.0201658), wk =   0.0020000
        k(  208) = (   0.4144741   0.3076673   0.0201658), wk =   0.0020000
        k(  209) = (   0.3552636   0.2051115   0.0604973), wk =   0.0020000
        k(  210) = (   0.2960530   0.1025558   0.1008289), wk =   0.0020000
        k(  211) = (   0.1776318   0.1025558   0.1814920), wk =   0.0020000
        k(  212) = (   0.1184212   0.0000000   0.2218236), wk =   0.0020000
        k(  213) = (   0.0592106  -0.1025558   0.2621552), wk =   0.0020000
        k(  214) = (  -0.0000000  -0.2051115   0.3024867), wk =   0.0020000
        k(  215) = (  -0.0592106  -0.3076673   0.3428183), wk =   0.0020000
        k(  216) = (   0.4736847   0.6153345  -0.0201658), wk =   0.0020000
        k(  217) = (   0.4144741   0.5127788   0.0201658), wk =   0.0020000
        k(  218) = (   0.3552636   0.4102230   0.0604973), wk =   0.0020000
        k(  219) = (   0.2960530   0.3076673   0.1008289), wk =   0.0020000
        k(  220) = (   0.2368424   0.2051115   0.1411605), wk =   0.0020000
        k(  221) = (   0.1184212   0.2051115   0.2218236), wk =   0.0020000
        k(  222) = (   0.0592106   0.1025558   0.2621552), wk =   0.0020000
        k(  223) = (   0.0000000   0.0000000   0.3024867), wk =   0.0020000
        k(  224) = (  -0.0592106  -0.1025558   0.3428183), wk =   0.0020000
        k(  225) = (  -0.1184212  -0.2051115   0.3831499), wk =   0.0020000
        k(  226) = (   0.4144741   0.7178903   0.0201658), wk =   0.0020000
        k(  227) = (   0.3552636   0.6153345   0.0604973), wk =   0.0020000
        k(  228) = (   0.2960530   0.5127788   0.1008289), wk =   0.0020000
        k(  229) = (   0.2368424   0.4102230   0.1411605), wk =   0.0020000
        k(  230) = (   0.1776318   0.3076673   0.1814920), wk =   0.0020000
        k(  231) = (   0.0592106   0.3076673   0.2621552), wk =   0.0020000
        k(  232) = (  -0.0000000   0.2051115   0.3024867), wk =   0.0020000
        k(  233) = (  -0.0592106   0.1025558   0.3428183), wk =   0.0020000
        k(  234) = (  -0.1184212   0.0000000   0.3831499), wk =   0.0020000
        k(  235) = (  -0.1776318  -0.1025558   0.4234814), wk =   0.0020000
        k(  236) = (   0.3552636   0.8204460   0.0604973), wk =   0.0020000
        k(  237) = (   0.2960530   0.7178903   0.1008289), wk =   0.0020000
        k(  238) = (   0.2368424   0.6153345   0.1411605), wk =   0.0020000
        k(  239) = (   0.1776318   0.5127788   0.1814920), wk =   0.0020000
        k(  240) = (   0.1184212   0.4102230   0.2218236), wk =   0.0020000
        k(  241) = (  -0.0000000   0.4102230   0.3024867), wk =   0.0020000
        k(  242) = (  -0.0592106   0.3076673   0.3428183), wk =   0.0020000
        k(  243) = (  -0.1184212   0.2051115   0.3831499), wk =   0.0020000
        k(  244) = (  -0.1776318   0.1025558   0.4234814), wk =   0.0020000
        k(  245) = (  -0.2368424   0.0000000   0.4638130), wk =   0.0020000
        k(  246) = (   0.2960530   0.9230018   0.1008289), wk =   0.0020000
        k(  247) = (   0.2368424   0.8204460   0.1411605), wk =   0.0020000
        k(  248) = (   0.1776318   0.7178903   0.1814920), wk =   0.0020000
        k(  249) = (   0.1184212   0.6153345   0.2218236), wk =   0.0020000
        k(  250) = (   0.0592106   0.5127788   0.2621552), wk =   0.0020000
        k(  251) = (   0.5328953  -0.5127788  -0.0604973), wk =   0.0020000
        k(  252) = (   0.4736847  -0.6153345  -0.0201658), wk =   0.0020000
        k(  253) = (   0.4144741  -0.7178903   0.0201658), wk =   0.0020000
        k(  254) = (   0.3552636  -0.8204460   0.0604973), wk =   0.0020000
        k(  255) = (   0.2960530  -0.9230018   0.1008289), wk =   0.0020000
        k(  256) = (   0.8289483   0.0000000  -0.2621552), wk =   0.0020000
        k(  257) = (   0.7697377  -0.1025558  -0.2218236), wk =   0.0020000
        k(  258) = (   0.7105271  -0.2051115  -0.1814920), wk =   0.0020000
        k(  259) = (   0.6513165  -0.3076673  -0.1411605), wk =   0.0020000
        k(  260) = (   0.5921059  -0.4102230  -0.1008289), wk =   0.0020000
        k(  261) = (   0.4736847  -0.4102230  -0.0201658), wk =   0.0020000
        k(  262) = (   0.4144741  -0.5127788   0.0201658), wk =   0.0020000
        k(  263) = (   0.3552636  -0.6153345   0.0604973), wk =   0.0020000
        k(  264) = (   0.2960530  -0.7178903   0.1008289), wk =   0.0020000
        k(  265) = (   0.2368424  -0.8204460   0.1411605), wk =   0.0020000
        k(  266) = (   0.7697377   0.1025558  -0.2218236), wk =   0.0020000
        k(  267) = (   0.7105271   0.0000000  -0.1814920), wk =   0.0020000
        k(  268) = (   0.6513165  -0.1025558  -0.1411605), wk =   0.0020000
        k(  269) = (   0.5921059  -0.2051115  -0.1008289), wk =   0.0020000
        k(  270) = (   0.5328953  -0.3076673  -0.0604973), wk =   0.0020000
        k(  271) = (   0.4144741  -0.3076673   0.0201658), wk =   0.0020000
        k(  272) = (   0.3552636  -0.4102230   0.0604973), wk =   0.0020000
        k(  273) = (   0.2960530  -0.5127788   0.1008289), wk =   0.0020000
        k(  274) = (   0.2368424  -0.6153345   0.1411605), wk =   0.0020000
        k(  275) = (   0.1776318  -0.7178903   0.1814920), wk =   0.0020000
        k(  276) = (   0.7105271   0.2051115  -0.1814920), wk =   0.0020000
        k(  277) = (   0.6513165   0.1025558  -0.1411605), wk =   0.0020000
        k(  278) = (   0.5921059   0.0000000  -0.1008289), wk =   0.0020000
        k(  279) = (   0.5328953  -0.1025558  -0.0604973), wk =   0.0020000
        k(  280) = (   0.4736847  -0.2051115  -0.0201658), wk =   0.0020000
        k(  281) = (   0.3552636  -0.2051115   0.0604973), wk =   0.0020000
        k(  282) = (   0.2960530  -0.3076673   0.1008289), wk =   0.0020000
        k(  283) = (   0.2368424  -0.4102230   0.1411605), wk =   0.0020000
        k(  284) = (   0.1776318  -0.5127788   0.1814920), wk =   0.0020000
        k(  285) = (   0.1184212  -0.6153345   0.2218236), wk =   0.0020000
        k(  286) = (   0.6513165   0.3076673  -0.1411605), wk =   0.0020000
        k(  287) = (   0.5921059   0.2051115  -0.1008289), wk =   0.0020000
        k(  288) = (   0.5328953   0.1025558  -0.0604973), wk =   0.0020000
        k(  289) = (   0.4736847   0.0000000  -0.0201658), wk =   0.0020000
        k(  290) = (   0.4144741  -0.1025558   0.0201658), wk =   0.0020000
        k(  291) = (   0.2960530  -0.1025558   0.1008289), wk =   0.0020000
        k(  292) = (   0.2368424  -0.2051115   0.1411605), wk =   0.0020000
        k(  293) = (   0.1776318  -0.3076673   0.1814920), wk =   0.0020000
        k(  294) = (   0.1184212  -0.4102230   0.2218236), wk =   0.0020000
        k(  295) = (   0.0592106  -0.5127788   0.2621552), wk =   0.0020000
        k(  296) = (   0.5921059   0.4102230  -0.1008289), wk =   0.0020000
        k(  297) = (   0.5328953   0.3076673  -0.0604973), wk =   0.0020000
        k(  298) = (   0.4736847   0.2051115  -0.0201658), wk =   0.0020000
        k(  299) = (   0.4144741   0.1025558   0.0201658), wk =   0.0020000
        k(  300) = (   0.3552636   0.0000000   0.0604973), wk =   0.0020000
        k(  301) = (   0.3552636   0.0000000   0.1814920), wk =   0.0020000
        k(  302) = (   0.2960530  -0.1025558   0.2218236), wk =   0.0020000
        k(  303) = (   0.2368424  -0.2051115   0.2621552), wk =   0.0020000
        k(  304) = (   0.1776318  -0.3076673   0.3024867), wk =   0.0020000
        k(  305) = (   0.1184212  -0.4102230   0.3428183), wk =   0.0020000
        k(  306) = (   0.6513165   0.5127788  -0.0201658), wk =   0.0020000
        k(  307) = (   0.5921059   0.4102230   0.0201658), wk =   0.0020000
        k(  308) = (   0.5328953   0.3076673   0.0604973), wk =   0.0020000
        k(  309) = (   0.4736847   0.2051115   0.1008289), wk =   0.0020000
        k(  310) = (   0.4144741   0.1025558   0.1411605), wk =   0.0020000
        k(  311) = (   0.2960530   0.1025558   0.2218236), wk =   0.0020000
        k(  312) = (   0.2368424   0.0000000   0.2621552), wk =   0.0020000
        k(  313) = (   0.1776318  -0.1025558   0.3024867), wk =   0.0020000
        k(  314) = (   0.1184212  -0.2051115   0.3428183), wk =   0.0020000
        k(  315) = (   0.0592106  -0.3076673   0.3831499), wk =   0.0020000
        k(  316) = (   0.5921059   0.6153345   0.0201658), wk =   0.0020000
        k(  317) = (   0.5328953   0.5127788   0.0604973), wk =   0.0020000
        k(  318) = (   0.4736847   0.4102230   0.1008289), wk =   0.0020000
        k(  319) = (   0.4144741   0.3076673   0.1411605), wk =   0.0020000
        k(  320) = (   0.3552636   0.2051115   0.1814920), wk =   0.0020000
        k(  321) = (   0.2368424   0.2051115   0.2621552), wk =   0.0020000
        k(  322) = (   0.1776318   0.1025558   0.3024867), wk =   0.0020000
        k(  323) = (   0.1184212   0.0000000   0.3428183), wk =   0.0020000
        k(  324) = (   0.0592106  -0.1025558   0.3831499), wk =   0.0020000
        k(  325) = (  -0.0000000  -0.2051115   0.4234814), wk =   0.0020000
        k(  326) = (   0.5328953   0.7178903   0.0604973), wk =   0.0020000
        k(  327) = (   0.4736847   0.6153345   0.1008289), wk =   0.0020000
        k(  328) = (   0.4144741   0.5127788   0.1411605), wk =   0.0020000
        k(  329) = (   0.3552636   0.4102230   0.1814920), wk =   0.0020000
        k(  330) = (   0.2960530   0.3076673   0.2218236), wk =   0.0020000
        k(  331) = (   0.1776318   0.3076673   0.3024867), wk =   0.0020000
        k(  332) = (   0.1184212   0.2051115   0.3428183), wk =   0.0020000
        k(  333) = (   0.0592106   0.1025558   0.3831499), wk =   0.0020000
        k(  334) = (   0.0000000   0.0000000   0.4234814), wk =   0.0020000
        k(  335) = (  -0.0592106  -0.1025558   0.4638130), wk =   0.0020000
        k(  336) = (   0.4736847   0.8204460   0.1008289), wk =   0.0020000
        k(  337) = (   0.4144741   0.7178903   0.1411605), wk =   0.0020000
        k(  338) = (   0.3552636   0.6153345   0.1814920), wk =   0.0020000
        k(  339) = (   0.2960530   0.5127788   0.2218236), wk =   0.0020000
        k(  340) = (   0.2368424   0.4102230   0.2621552), wk =   0.0020000
        k(  341) = (   0.1184212   0.4102230   0.3428183), wk =   0.0020000
        k(  342) = (   0.0592106   0.3076673   0.3831499), wk =   0.0020000
        k(  343) = (  -0.0000000   0.2051115   0.4234814), wk =   0.0020000
        k(  344) = (  -0.0592106   0.1025558   0.4638130), wk =   0.0020000
        k(  345) = (  -0.1184212   0.0000000   0.5041445), wk =   0.0020000
        k(  346) = (   0.4144741   0.9230018   0.1411605), wk =   0.0020000
        k(  347) = (   0.3552636   0.8204460   0.1814920), wk =   0.0020000
        k(  348) = (   0.2960530   0.7178903   0.2218236), wk =   0.0020000
        k(  349) = (   0.2368424   0.6153345   0.2621552), wk =   0.0020000
        k(  350) = (   0.1776318   0.5127788   0.3024867), wk =   0.0020000
        k(  351) = (   0.6513165  -0.5127788  -0.0201658), wk =   0.0020000
        k(  352) = (   0.5921059  -0.6153345   0.0201658), wk =   0.0020000
        k(  353) = (   0.5328953  -0.7178903   0.0604973), wk =   0.0020000
        k(  354) = (   0.4736847  -0.8204460   0.1008289), wk =   0.0020000
        k(  355) = (   0.4144741  -0.9230018   0.1411605), wk =   0.0020000
        k(  356) = (   0.9473695   0.0000000  -0.2218236), wk =   0.0020000
        k(  357) = (   0.8881589  -0.1025558  -0.1814920), wk =   0.0020000
        k(  358) = (   0.8289483  -0.2051115  -0.1411605), wk =   0.0020000
        k(  359) = (   0.7697377  -0.3076673  -0.1008289), wk =   0.0020000
        k(  360) = (   0.7105271  -0.4102230  -0.0604973), wk =   0.0020000
        k(  361) = (   0.5921059  -0.4102230   0.0201658), wk =   0.0020000
        k(  362) = (   0.5328953  -0.5127788   0.0604973), wk =   0.0020000
        k(  363) = (   0.4736847  -0.6153345   0.1008289), wk =   0.0020000
        k(  364) = (   0.4144741  -0.7178903   0.1411605), wk =   0.0020000
        k(  365) = (   0.3552636  -0.8204460   0.1814920), wk =   0.0020000
        k(  366) = (   0.8881589   0.1025558  -0.1814920), wk =   0.0020000
        k(  367) = (   0.8289483   0.0000000  -0.1411605), wk =   0.0020000
        k(  368) = (   0.7697377  -0.1025558  -0.1008289), wk =   0.0020000
        k(  369) = (   0.7105271  -0.2051115  -0.0604973), wk =   0.0020000
        k(  370) = (   0.6513165  -0.3076673  -0.0201658), wk =   0.0020000
        k(  371) = (   0.5328953  -0.3076673   0.0604973), wk =   0.0020000
        k(  372) = (   0.4736847  -0.4102230   0.1008289), wk =   0.0020000
        k(  373) = (   0.4144741  -0.5127788   0.1411605), wk =   0.0020000
        k(  374) = (   0.3552636  -0.6153345   0.1814920), wk =   0.0020000
        k(  375) = (   0.2960530  -0.7178903   0.2218236), wk =   0.0020000
        k(  376) = (   0.8289483   0.2051115  -0.1411605), wk =   0.0020000
        k(  377) = (   0.7697377   0.1025558  -0.1008289), wk =   0.0020000
        k(  378) = (   0.7105271   0.0000000  -0.0604973), wk =   0.0020000
        k(  379) = (   0.6513165  -0.1025558  -0.0201658), wk =   0.0020000
        k(  380) = (   0.5921059  -0.2051115   0.0201658), wk =   0.0020000
        k(  381) = (   0.4736847  -0.2051115   0.1008289), wk =   0.0020000
        k(  382) = (   0.4144741  -0.3076673   0.1411605), wk =   0.0020000
        k(  383) = (   0.3552636  -0.4102230   0.1814920), wk =   0.0020000
        k(  384) = (   0.2960530  -0.5127788   0.2218236), wk =   0.0020000
        k(  385) = (   0.2368424  -0.6153345   0.2621552), wk =   0.0020000
        k(  386) = (   0.7697377   0.3076673  -0.1008289), wk =   0.0020000
        k(  387) = (   0.7105271   0.2051115  -0.0604973), wk =   0.0020000
        k(  388) = (   0.6513165   0.1025558  -0.0201658), wk =   0.0020000
        k(  389) = (   0.5921059   0.0000000   0.0201658), wk =   0.0020000
        k(  390) = (   0.5328953  -0.1025558   0.0604973), wk =   0.0020000
        k(  391) = (   0.4144741  -0.1025558   0.1411605), wk =   0.0020000
        k(  392) = (   0.3552636  -0.2051115   0.1814920), wk =   0.0020000
        k(  393) = (   0.2960530  -0.3076673   0.2218236), wk =   0.0020000
        k(  394) = (   0.2368424  -0.4102230   0.2621552), wk =   0.0020000
        k(  395) = (   0.1776318  -0.5127788   0.3024867), wk =   0.0020000
        k(  396) = (   0.7105271   0.4102230  -0.0604973), wk =   0.0020000
        k(  397) = (   0.6513165   0.3076673  -0.0201658), wk =   0.0020000
        k(  398) = (   0.5921059   0.2051115   0.0201658), wk =   0.0020000
        k(  399) = (   0.5328953   0.1025558   0.0604973), wk =   0.0020000
        k(  400) = (   0.4736847   0.0000000   0.1008289), wk =   0.0020000
        k(  401) = (   0.4736847   0.0000000   0.2218236), wk =   0.0020000
        k(  402) = (   0.4144741  -0.1025558   0.2621552), wk =   0.0020000
        k(  403) = (   0.3552636  -0.2051115   0.3024867), wk =   0.0020000
        k(  404) = (   0.2960530  -0.3076673   0.3428183), wk =   0.0020000
        k(  405) = (   0.2368424  -0.4102230   0.3831499), wk =   0.0020000
        k(  406) = (   0.7697377   0.5127788   0.0201658), wk =   0.0020000
        k(  407) = (   0.7105271   0.4102230   0.0604973), wk =   0.0020000
        k(  408) = (   0.6513165   0.3076673   0.1008289), wk =   0.0020000
        k(  409) = (   0.5921059   0.2051115   0.1411605), wk =   0.0020000
        k(  410) = (   0.5328953   0.1025558   0.1814920), wk =   0.0020000
        k(  411) = (   0.4144741   0.1025558   0.2621552), wk =   0.0020000
        k(  412) = (   0.3552636   0.0000000   0.3024867), wk =   0.0020000
        k(  413) = (   0.2960530  -0.1025558   0.3428183), wk =   0.0020000
        k(  414) = (   0.2368424  -0.2051115   0.3831499), wk =   0.0020000
        k(  415) = (   0.1776318  -0.3076673   0.4234814), wk =   0.0020000
        k(  416) = (   0.7105271   0.6153345   0.0604973), wk =   0.0020000
        k(  417) = (   0.6513165   0.5127788   0.1008289), wk =   0.0020000
        k(  418) = (   0.5921059   0.4102230   0.1411605), wk =   0.0020000
        k(  419) = (   0.5328953   0.3076673   0.1814920), wk =   0.0020000
        k(  420) = (   0.4736847   0.2051115   0.2218236), wk =   0.0020000
        k(  421) = (   0.3552636   0.2051115   0.3024867), wk =   0.0020000
        k(  422) = (   0.2960530   0.1025558   0.3428183), wk =   0.0020000
        k(  423) = (   0.2368424   0.0000000   0.3831499), wk =   0.0020000
        k(  424) = (   0.1776318  -0.1025558   0.4234814), wk =   0.0020000
        k(  425) = (   0.1184212  -0.2051115   0.4638130), wk =   0.0020000
        k(  426) = (   0.6513165   0.7178903   0.1008289), wk =   0.0020000
        k(  427) = (   0.5921059   0.6153345   0.1411605), wk =   0.0020000
        k(  428) = (   0.5328953   0.5127788   0.1814920), wk =   0.0020000
        k(  429) = (   0.4736847   0.4102230   0.2218236), wk =   0.0020000
        k(  430) = (   0.4144741   0.3076673   0.2621552), wk =   0.0020000
        k(  431) = (   0.2960530   0.3076673   0.3428183), wk =   0.0020000
        k(  432) = (   0.2368424   0.2051115   0.3831499), wk =   0.0020000
        k(  433) = (   0.1776318   0.1025558   0.4234814), wk =   0.0020000
        k(  434) = (   0.1184212   0.0000000   0.4638130), wk =   0.0020000
        k(  435) = (   0.0592106  -0.1025558   0.5041445), wk =   0.0020000
        k(  436) = (   0.5921059   0.8204460   0.1411605), wk =   0.0020000
        k(  437) = (   0.5328953   0.7178903   0.1814920), wk =   0.0020000
        k(  438) = (   0.4736847   0.6153345   0.2218236), wk =   0.0020000
        k(  439) = (   0.4144741   0.5127788   0.2621552), wk =   0.0020000
        k(  440) = (   0.3552636   0.4102230   0.3024867), wk =   0.0020000
        k(  441) = (   0.2368424   0.4102230   0.3831499), wk =   0.0020000
        k(  442) = (   0.1776318   0.3076673   0.4234814), wk =   0.0020000
        k(  443) = (   0.1184212   0.2051115   0.4638130), wk =   0.0020000
        k(  444) = (   0.0592106   0.1025558   0.5041445), wk =   0.0020000
        k(  445) = (   0.0000000   0.0000000   0.5444761), wk =   0.0020000
        k(  446) = (   0.5328953   0.9230018   0.1814920), wk =   0.0020000
        k(  447) = (   0.4736847   0.8204460   0.2218236), wk =   0.0020000
        k(  448) = (   0.4144741   0.7178903   0.2621552), wk =   0.0020000
        k(  449) = (   0.3552636   0.6153345   0.3024867), wk =   0.0020000
        k(  450) = (   0.2960530   0.5127788   0.3428183), wk =   0.0020000
        k(  451) = (   0.7697377  -0.5127788   0.0201658), wk =   0.0020000
        k(  452) = (   0.7105271  -0.6153345   0.0604973), wk =   0.0020000
        k(  453) = (   0.6513165  -0.7178903   0.1008289), wk =   0.0020000
        k(  454) = (   0.5921059  -0.8204460   0.1411605), wk =   0.0020000
        k(  455) = (   0.5328953  -0.9230018   0.1814920), wk =   0.0020000
        k(  456) = (   1.0657907   0.0000000  -0.1814920), wk =   0.0020000
        k(  457) = (   1.0065801  -0.1025558  -0.1411605), wk =   0.0020000
        k(  458) = (   0.9473695  -0.2051115  -0.1008289), wk =   0.0020000
        k(  459) = (   0.8881589  -0.3076673  -0.0604973), wk =   0.0020000
        k(  460) = (   0.8289483  -0.4102230  -0.0201658), wk =   0.0020000
        k(  461) = (   0.7105271  -0.4102230   0.0604973), wk =   0.0020000
        k(  462) = (   0.6513165  -0.5127788   0.1008289), wk =   0.0020000
        k(  463) = (   0.5921059  -0.6153345   0.1411605), wk =   0.0020000
        k(  464) = (   0.5328953  -0.7178903   0.1814920), wk =   0.0020000
        k(  465) = (   0.4736847  -0.8204460   0.2218236), wk =   0.0020000
        k(  466) = (   1.0065801   0.1025558  -0.1411605), wk =   0.0020000
        k(  467) = (   0.9473695   0.0000000  -0.1008289), wk =   0.0020000
        k(  468) = (   0.8881589  -0.1025558  -0.0604973), wk =   0.0020000
        k(  469) = (   0.8289483  -0.2051115  -0.0201658), wk =   0.0020000
        k(  470) = (   0.7697377  -0.3076673   0.0201658), wk =   0.0020000
        k(  471) = (   0.6513165  -0.3076673   0.1008289), wk =   0.0020000
        k(  472) = (   0.5921059  -0.4102230   0.1411605), wk =   0.0020000
        k(  473) = (   0.5328953  -0.5127788   0.1814920), wk =   0.0020000
        k(  474) = (   0.4736847  -0.6153345   0.2218236), wk =   0.0020000
        k(  475) = (   0.4144741  -0.7178903   0.2621552), wk =   0.0020000
        k(  476) = (   0.9473695   0.2051115  -0.1008289), wk =   0.0020000
        k(  477) = (   0.8881589   0.1025558  -0.0604973), wk =   0.0020000
        k(  478) = (   0.8289483   0.0000000  -0.0201658), wk =   0.0020000
        k(  479) = (   0.7697377  -0.1025558   0.0201658), wk =   0.0020000
        k(  480) = (   0.7105271  -0.2051115   0.0604973), wk =   0.0020000
        k(  481) = (   0.5921059  -0.2051115   0.1411605), wk =   0.0020000
        k(  482) = (   0.5328953  -0.3076673   0.1814920), wk =   0.0020000
        k(  483) = (   0.4736847  -0.4102230   0.2218236), wk =   0.0020000
        k(  484) = (   0.4144741  -0.5127788   0.2621552), wk =   0.0020000
        k(  485) = (   0.3552636  -0.6153345   0.3024867), wk =   0.0020000
        k(  486) = (   0.8881589   0.3076673  -0.0604973), wk =   0.0020000
        k(  487) = (   0.8289483   0.2051115  -0.0201658), wk =   0.0020000
        k(  488) = (   0.7697377   0.1025558   0.0201658), wk =   0.0020000
        k(  489) = (   0.7105271   0.0000000   0.0604973), wk =   0.0020000
        k(  490) = (   0.6513165  -0.1025558   0.1008289), wk =   0.0020000
        k(  491) = (   0.5328953  -0.1025558   0.1814920), wk =   0.0020000
        k(  492) = (   0.4736847  -0.2051115   0.2218236), wk =   0.0020000
        k(  493) = (   0.4144741  -0.3076673   0.2621552), wk =   0.0020000
        k(  494) = (   0.3552636  -0.4102230   0.3024867), wk =   0.0020000
        k(  495) = (   0.2960530  -0.5127788   0.3428183), wk =   0.0020000
        k(  496) = (   0.8289483   0.4102230  -0.0201658), wk =   0.0020000
        k(  497) = (   0.7697377   0.3076673   0.0201658), wk =   0.0020000
        k(  498) = (   0.7105271   0.2051115   0.0604973), wk =   0.0020000
        k(  499) = (   0.6513165   0.1025558   0.1008289), wk =   0.0020000
        k(  500) = (   0.5921059   0.0000000   0.1411605), wk =   0.0020000

                       cryst. coord.
        k(    1) = (   0.0500000   0.0500000   0.0500000), wk =   0.0020000
        k(    2) = (   0.0500000   0.0500000   0.1500000), wk =   0.0020000
        k(    3) = (   0.0500000   0.0500000   0.2500000), wk =   0.0020000
        k(    4) = (   0.0500000   0.0500000   0.3500000), wk =   0.0020000
        k(    5) = (   0.0500000   0.0500000   0.4500000), wk =   0.0020000
        k(    6) = (   0.0500000   0.0500000  -0.4500000), wk =   0.0020000
        k(    7) = (   0.0500000   0.0500000  -0.3500000), wk =   0.0020000
        k(    8) = (   0.0500000   0.0500000  -0.2500000), wk =   0.0020000
        k(    9) = (   0.0500000   0.0500000  -0.1500000), wk =   0.0020000
        k(   10) = (   0.0500000   0.0500000  -0.0500000), wk =   0.0020000
        k(   11) = (   0.0500000   0.1500000   0.0500000), wk =   0.0020000
        k(   12) = (   0.0500000   0.1500000   0.1500000), wk =   0.0020000
        k(   13) = (   0.0500000   0.1500000   0.2500000), wk =   0.0020000
        k(   14) = (   0.0500000   0.1500000   0.3500000), wk =   0.0020000
        k(   15) = (   0.0500000   0.1500000   0.4500000), wk =   0.0020000
        k(   16) = (   0.0500000   0.1500000  -0.4500000), wk =   0.0020000
        k(   17) = (   0.0500000   0.1500000  -0.3500000), wk =   0.0020000
        k(   18) = (   0.0500000   0.1500000  -0.2500000), wk =   0.0020000
        k(   19) = (   0.0500000   0.1500000  -0.1500000), wk =   0.0020000
        k(   20) = (   0.0500000   0.1500000  -0.0500000), wk =   0.0020000
        k(   21) = (   0.0500000   0.2500000   0.0500000), wk =   0.0020000
        k(   22) = (   0.0500000   0.2500000   0.1500000), wk =   0.0020000
        k(   23) = (   0.0500000   0.2500000   0.2500000), wk =   0.0020000
        k(   24) = (   0.0500000   0.2500000   0.3500000), wk =   0.0020000
        k(   25) = (   0.0500000   0.2500000   0.4500000), wk =   0.0020000
        k(   26) = (   0.0500000   0.2500000  -0.4500000), wk =   0.0020000
        k(   27) = (   0.0500000   0.2500000  -0.3500000), wk =   0.0020000
        k(   28) = (   0.0500000   0.2500000  -0.2500000), wk =   0.0020000
        k(   29) = (   0.0500000   0.2500000  -0.1500000), wk =   0.0020000
        k(   30) = (   0.0500000   0.2500000  -0.0500000), wk =   0.0020000
        k(   31) = (   0.0500000   0.3500000   0.0500000), wk =   0.0020000
        k(   32) = (   0.0500000   0.3500000   0.1500000), wk =   0.0020000
        k(   33) = (   0.0500000   0.3500000   0.2500000), wk =   0.0020000
        k(   34) = (   0.0500000   0.3500000   0.3500000), wk =   0.0020000
        k(   35) = (   0.0500000   0.3500000   0.4500000), wk =   0.0020000
        k(   36) = (   0.0500000   0.3500000  -0.4500000), wk =   0.0020000
        k(   37) = (   0.0500000   0.3500000  -0.3500000), wk =   0.0020000
        k(   38) = (   0.0500000   0.3500000  -0.2500000), wk =   0.0020000
        k(   39) = (   0.0500000   0.3500000  -0.1500000), wk =   0.0020000
        k(   40) = (   0.0500000   0.3500000  -0.0500000), wk =   0.0020000
        k(   41) = (   0.0500000   0.4500000   0.0500000), wk =   0.0020000
        k(   42) = (   0.0500000   0.4500000   0.1500000), wk =   0.0020000
        k(   43) = (   0.0500000   0.4500000   0.2500000), wk =   0.0020000
        k(   44) = (   0.0500000   0.4500000   0.3500000), wk =   0.0020000
        k(   45) = (   0.0500000   0.4500000   0.4500000), wk =   0.0020000
        k(   46) = (   0.0500000   0.4500000  -0.4500000), wk =   0.0020000
        k(   47) = (   0.0500000   0.4500000  -0.3500000), wk =   0.0020000
        k(   48) = (   0.0500000   0.4500000  -0.2500000), wk =   0.0020000
        k(   49) = (   0.0500000   0.4500000  -0.1500000), wk =   0.0020000
        k(   50) = (   0.0500000   0.4500000  -0.0500000), wk =   0.0020000
        k(   51) = (   0.0500000  -0.4500000   0.0500000), wk =   0.0020000
        k(   52) = (   0.0500000  -0.4500000   0.1500000), wk =   0.0020000
        k(   53) = (   0.0500000  -0.4500000   0.2500000), wk =   0.0020000
        k(   54) = (   0.0500000  -0.4500000   0.3500000), wk =   0.0020000
        k(   55) = (   0.0500000  -0.4500000   0.4500000), wk =   0.0020000
        k(   56) = (   0.0500000  -0.4500000  -0.4500000), wk =   0.0020000
        k(   57) = (   0.0500000  -0.4500000  -0.3500000), wk =   0.0020000
        k(   58) = (   0.0500000  -0.4500000  -0.2500000), wk =   0.0020000
        k(   59) = (   0.0500000  -0.4500000  -0.1500000), wk =   0.0020000
        k(   60) = (   0.0500000  -0.4500000  -0.0500000), wk =   0.0020000
        k(   61) = (   0.0500000  -0.3500000   0.0500000), wk =   0.0020000
        k(   62) = (   0.0500000  -0.3500000   0.1500000), wk =   0.0020000
        k(   63) = (   0.0500000  -0.3500000   0.2500000), wk =   0.0020000
        k(   64) = (   0.0500000  -0.3500000   0.3500000), wk =   0.0020000
        k(   65) = (   0.0500000  -0.3500000   0.4500000), wk =   0.0020000
        k(   66) = (   0.0500000  -0.3500000  -0.4500000), wk =   0.0020000
        k(   67) = (   0.0500000  -0.3500000  -0.3500000), wk =   0.0020000
        k(   68) = (   0.0500000  -0.3500000  -0.2500000), wk =   0.0020000
        k(   69) = (   0.0500000  -0.3500000  -0.1500000), wk =   0.0020000
        k(   70) = (   0.0500000  -0.3500000  -0.0500000), wk =   0.0020000
        k(   71) = (   0.0500000  -0.2500000   0.0500000), wk =   0.0020000
        k(   72) = (   0.0500000  -0.2500000   0.1500000), wk =   0.0020000
        k(   73) = (   0.0500000  -0.2500000   0.2500000), wk =   0.0020000
        k(   74) = (   0.0500000  -0.2500000   0.3500000), wk =   0.0020000
        k(   75) = (   0.0500000  -0.2500000   0.4500000), wk =   0.0020000
        k(   76) = (   0.0500000  -0.2500000  -0.4500000), wk =   0.0020000
        k(   77) = (   0.0500000  -0.2500000  -0.3500000), wk =   0.0020000
        k(   78) = (   0.0500000  -0.2500000  -0.2500000), wk =   0.0020000
        k(   79) = (   0.0500000  -0.2500000  -0.1500000), wk =   0.0020000
        k(   80) = (   0.0500000  -0.2500000  -0.0500000), wk =   0.0020000
        k(   81) = (   0.0500000  -0.1500000   0.0500000), wk =   0.0020000
        k(   82) = (   0.0500000  -0.1500000   0.1500000), wk =   0.0020000
        k(   83) = (   0.0500000  -0.1500000   0.2500000), wk =   0.0020000
        k(   84) = (   0.0500000  -0.1500000   0.3500000), wk =   0.0020000
        k(   85) = (   0.0500000  -0.1500000   0.4500000), wk =   0.0020000
        k(   86) = (   0.0500000  -0.1500000  -0.4500000), wk =   0.0020000
        k(   87) = (   0.0500000  -0.1500000  -0.3500000), wk =   0.0020000
        k(   88) = (   0.0500000  -0.1500000  -0.2500000), wk =   0.0020000
        k(   89) = (   0.0500000  -0.1500000  -0.1500000), wk =   0.0020000
        k(   90) = (   0.0500000  -0.1500000  -0.0500000), wk =   0.0020000
        k(   91) = (   0.0500000  -0.0500000   0.0500000), wk =   0.0020000
        k(   92) = (   0.0500000  -0.0500000   0.1500000), wk =   0.0020000
        k(   93) = (   0.0500000  -0.0500000   0.2500000), wk =   0.0020000
        k(   94) = (   0.0500000  -0.0500000   0.3500000), wk =   0.0020000
        k(   95) = (   0.0500000  -0.0500000   0.4500000), wk =   0.0020000
        k(   96) = (   0.0500000  -0.0500000  -0.4500000), wk =   0.0020000
        k(   97) = (   0.0500000  -0.0500000  -0.3500000), wk =   0.0020000
        k(   98) = (   0.0500000  -0.0500000  -0.2500000), wk =   0.0020000
        k(   99) = (   0.0500000  -0.0500000  -0.1500000), wk =   0.0020000
        k(  100) = (   0.0500000  -0.0500000  -0.0500000), wk =   0.0020000
        k(  101) = (   0.1500000   0.0500000   0.0500000), wk =   0.0020000
        k(  102) = (   0.1500000   0.0500000   0.1500000), wk =   0.0020000
        k(  103) = (   0.1500000   0.0500000   0.2500000), wk =   0.0020000
        k(  104) = (   0.1500000   0.0500000   0.3500000), wk =   0.0020000
        k(  105) = (   0.1500000   0.0500000   0.4500000), wk =   0.0020000
        k(  106) = (   0.1500000   0.0500000  -0.4500000), wk =   0.0020000
        k(  107) = (   0.1500000   0.0500000  -0.3500000), wk =   0.0020000
        k(  108) = (   0.1500000   0.0500000  -0.2500000), wk =   0.0020000
        k(  109) = (   0.1500000   0.0500000  -0.1500000), wk =   0.0020000
        k(  110) = (   0.1500000   0.0500000  -0.0500000), wk =   0.0020000
        k(  111) = (   0.1500000   0.1500000   0.0500000), wk =   0.0020000
        k(  112) = (   0.1500000   0.1500000   0.1500000), wk =   0.0020000
        k(  113) = (   0.1500000   0.1500000   0.2500000), wk =   0.0020000
        k(  114) = (   0.1500000   0.1500000   0.3500000), wk =   0.0020000
        k(  115) = (   0.1500000   0.1500000   0.4500000), wk =   0.0020000
        k(  116) = (   0.1500000   0.1500000  -0.4500000), wk =   0.0020000
        k(  117) = (   0.1500000   0.1500000  -0.3500000), wk =   0.0020000
        k(  118) = (   0.1500000   0.1500000  -0.2500000), wk =   0.0020000
        k(  119) = (   0.1500000   0.1500000  -0.1500000), wk =   0.0020000
        k(  120) = (   0.1500000   0.1500000  -0.0500000), wk =   0.0020000
        k(  121) = (   0.1500000   0.2500000   0.0500000), wk =   0.0020000
        k(  122) = (   0.1500000   0.2500000   0.1500000), wk =   0.0020000
        k(  123) = (   0.1500000   0.2500000   0.2500000), wk =   0.0020000
        k(  124) = (   0.1500000   0.2500000   0.3500000), wk =   0.0020000
        k(  125) = (   0.1500000   0.2500000   0.4500000), wk =   0.0020000
        k(  126) = (   0.1500000   0.2500000  -0.4500000), wk =   0.0020000
        k(  127) = (   0.1500000   0.2500000  -0.3500000), wk =   0.0020000
        k(  128) = (   0.1500000   0.2500000  -0.2500000), wk =   0.0020000
        k(  129) = (   0.1500000   0.2500000  -0.1500000), wk =   0.0020000
        k(  130) = (   0.1500000   0.2500000  -0.0500000), wk =   0.0020000
        k(  131) = (   0.1500000   0.3500000   0.0500000), wk =   0.0020000
        k(  132) = (   0.1500000   0.3500000   0.1500000), wk =   0.0020000
        k(  133) = (   0.1500000   0.3500000   0.2500000), wk =   0.0020000
        k(  134) = (   0.1500000   0.3500000   0.3500000), wk =   0.0020000
        k(  135) = (   0.1500000   0.3500000   0.4500000), wk =   0.0020000
        k(  136) = (   0.1500000   0.3500000  -0.4500000), wk =   0.0020000
        k(  137) = (   0.1500000   0.3500000  -0.3500000), wk =   0.0020000
        k(  138) = (   0.1500000   0.3500000  -0.2500000), wk =   0.0020000
        k(  139) = (   0.1500000   0.3500000  -0.1500000), wk =   0.0020000
        k(  140) = (   0.1500000   0.3500000  -0.0500000), wk =   0.0020000
        k(  141) = (   0.1500000   0.4500000   0.0500000), wk =   0.0020000
        k(  142) = (   0.1500000   0.4500000   0.1500000), wk =   0.0020000
        k(  143) = (   0.1500000   0.4500000   0.2500000), wk =   0.0020000
        k(  144) = (   0.1500000   0.4500000   0.3500000), wk =   0.0020000
        k(  145) = (   0.1500000   0.4500000   0.4500000), wk =   0.0020000
        k(  146) = (   0.1500000   0.4500000  -0.4500000), wk =   0.0020000
        k(  147) = (   0.1500000   0.4500000  -0.3500000), wk =   0.0020000
        k(  148) = (   0.1500000   0.4500000  -0.2500000), wk =   0.0020000
        k(  149) = (   0.1500000   0.4500000  -0.1500000), wk =   0.0020000
        k(  150) = (   0.1500000   0.4500000  -0.0500000), wk =   0.0020000
        k(  151) = (   0.1500000  -0.4500000   0.0500000), wk =   0.0020000
        k(  152) = (   0.1500000  -0.4500000   0.1500000), wk =   0.0020000
        k(  153) = (   0.1500000  -0.4500000   0.2500000), wk =   0.0020000
        k(  154) = (   0.1500000  -0.4500000   0.3500000), wk =   0.0020000
        k(  155) = (   0.1500000  -0.4500000   0.4500000), wk =   0.0020000
        k(  156) = (   0.1500000  -0.4500000  -0.4500000), wk =   0.0020000
        k(  157) = (   0.1500000  -0.4500000  -0.3500000), wk =   0.0020000
        k(  158) = (   0.1500000  -0.4500000  -0.2500000), wk =   0.0020000
        k(  159) = (   0.1500000  -0.4500000  -0.1500000), wk =   0.0020000
        k(  160) = (   0.1500000  -0.4500000  -0.0500000), wk =   0.0020000
        k(  161) = (   0.1500000  -0.3500000   0.0500000), wk =   0.0020000
        k(  162) = (   0.1500000  -0.3500000   0.1500000), wk =   0.0020000
        k(  163) = (   0.1500000  -0.3500000   0.2500000), wk =   0.0020000
        k(  164) = (   0.1500000  -0.3500000   0.3500000), wk =   0.0020000
        k(  165) = (   0.1500000  -0.3500000   0.4500000), wk =   0.0020000
        k(  166) = (   0.1500000  -0.3500000  -0.4500000), wk =   0.0020000
        k(  167) = (   0.1500000  -0.3500000  -0.3500000), wk =   0.0020000
        k(  168) = (   0.1500000  -0.3500000  -0.2500000), wk =   0.0020000
        k(  169) = (   0.1500000  -0.3500000  -0.1500000), wk =   0.0020000
        k(  170) = (   0.1500000  -0.3500000  -0.0500000), wk =   0.0020000
        k(  171) = (   0.1500000  -0.2500000   0.0500000), wk =   0.0020000
        k(  172) = (   0.1500000  -0.2500000   0.1500000), wk =   0.0020000
        k(  173) = (   0.1500000  -0.2500000   0.2500000), wk =   0.0020000
        k(  174) = (   0.1500000  -0.2500000   0.3500000), wk =   0.0020000
        k(  175) = (   0.1500000  -0.2500000   0.4500000), wk =   0.0020000
        k(  176) = (   0.1500000  -0.2500000  -0.4500000), wk =   0.0020000
        k(  177) = (   0.1500000  -0.2500000  -0.3500000), wk =   0.0020000
        k(  178) = (   0.1500000  -0.2500000  -0.2500000), wk =   0.0020000
        k(  179) = (   0.1500000  -0.2500000  -0.1500000), wk =   0.0020000
        k(  180) = (   0.1500000  -0.2500000  -0.0500000), wk =   0.0020000
        k(  181) = (   0.1500000  -0.1500000   0.0500000), wk =   0.0020000
        k(  182) = (   0.1500000  -0.1500000   0.1500000), wk =   0.0020000
        k(  183) = (   0.1500000  -0.1500000   0.2500000), wk =   0.0020000
        k(  184) = (   0.1500000  -0.1500000   0.3500000), wk =   0.0020000
        k(  185) = (   0.1500000  -0.1500000   0.4500000), wk =   0.0020000
        k(  186) = (   0.1500000  -0.1500000  -0.4500000), wk =   0.0020000
        k(  187) = (   0.1500000  -0.1500000  -0.3500000), wk =   0.0020000
        k(  188) = (   0.1500000  -0.1500000  -0.2500000), wk =   0.0020000
        k(  189) = (   0.1500000  -0.1500000  -0.1500000), wk =   0.0020000
        k(  190) = (   0.1500000  -0.1500000  -0.0500000), wk =   0.0020000
        k(  191) = (   0.1500000  -0.0500000   0.0500000), wk =   0.0020000
        k(  192) = (   0.1500000  -0.0500000   0.1500000), wk =   0.0020000
        k(  193) = (   0.1500000  -0.0500000   0.2500000), wk =   0.0020000
        k(  194) = (   0.1500000  -0.0500000   0.3500000), wk =   0.0020000
        k(  195) = (   0.1500000  -0.0500000   0.4500000), wk =   0.0020000
        k(  196) = (   0.1500000  -0.0500000  -0.4500000), wk =   0.0020000
        k(  197) = (   0.1500000  -0.0500000  -0.3500000), wk =   0.0020000
        k(  198) = (   0.1500000  -0.0500000  -0.2500000), wk =   0.0020000
        k(  199) = (   0.1500000  -0.0500000  -0.1500000), wk =   0.0020000
        k(  200) = (   0.1500000  -0.0500000  -0.0500000), wk =   0.0020000
        k(  201) = (   0.2500000   0.0500000   0.0500000), wk =   0.0020000
        k(  202) = (   0.2500000   0.0500000   0.1500000), wk =   0.0020000
        k(  203) = (   0.2500000   0.0500000   0.2500000), wk =   0.0020000
        k(  204) = (   0.2500000   0.0500000   0.3500000), wk =   0.0020000
        k(  205) = (   0.2500000   0.0500000   0.4500000), wk =   0.0020000
        k(  206) = (   0.2500000   0.0500000  -0.4500000), wk =   0.0020000
        k(  207) = (   0.2500000   0.0500000  -0.3500000), wk =   0.0020000
        k(  208) = (   0.2500000   0.0500000  -0.2500000), wk =   0.0020000
        k(  209) = (   0.2500000   0.0500000  -0.1500000), wk =   0.0020000
        k(  210) = (   0.2500000   0.0500000  -0.0500000), wk =   0.0020000
        k(  211) = (   0.2500000   0.1500000   0.0500000), wk =   0.0020000
        k(  212) = (   0.2500000   0.1500000   0.1500000), wk =   0.0020000
        k(  213) = (   0.2500000   0.1500000   0.2500000), wk =   0.0020000
        k(  214) = (   0.2500000   0.1500000   0.3500000), wk =   0.0020000
        k(  215) = (   0.2500000   0.1500000   0.4500000), wk =   0.0020000
        k(  216) = (   0.2500000   0.1500000  -0.4500000), wk =   0.0020000
        k(  217) = (   0.2500000   0.1500000  -0.3500000), wk =   0.0020000
        k(  218) = (   0.2500000   0.1500000  -0.2500000), wk =   0.0020000
        k(  219) = (   0.2500000   0.1500000  -0.1500000), wk =   0.0020000
        k(  220) = (   0.2500000   0.1500000  -0.0500000), wk =   0.0020000
        k(  221) = (   0.2500000   0.2500000   0.0500000), wk =   0.0020000
        k(  222) = (   0.2500000   0.2500000   0.1500000), wk =   0.0020000
        k(  223) = (   0.2500000   0.2500000   0.2500000), wk =   0.0020000
        k(  224) = (   0.2500000   0.2500000   0.3500000), wk =   0.0020000
        k(  225) = (   0.2500000   0.2500000   0.4500000), wk =   0.0020000
        k(  226) = (   0.2500000   0.2500000  -0.4500000), wk =   0.0020000
        k(  227) = (   0.2500000   0.2500000  -0.3500000), wk =   0.0020000
        k(  228) = (   0.2500000   0.2500000  -0.2500000), wk =   0.0020000
        k(  229) = (   0.2500000   0.2500000  -0.1500000), wk =   0.0020000
        k(  230) = (   0.2500000   0.2500000  -0.0500000), wk =   0.0020000
        k(  231) = (   0.2500000   0.3500000   0.0500000), wk =   0.0020000
        k(  232) = (   0.2500000   0.3500000   0.1500000), wk =   0.0020000
        k(  233) = (   0.2500000   0.3500000   0.2500000), wk =   0.0020000
        k(  234) = (   0.2500000   0.3500000   0.3500000), wk =   0.0020000
        k(  235) = (   0.2500000   0.3500000   0.4500000), wk =   0.0020000
        k(  236) = (   0.2500000   0.3500000  -0.4500000), wk =   0.0020000
        k(  237) = (   0.2500000   0.3500000  -0.3500000), wk =   0.0020000
        k(  238) = (   0.2500000   0.3500000  -0.2500000), wk =   0.0020000
        k(  239) = (   0.2500000   0.3500000  -0.1500000), wk =   0.0020000
        k(  240) = (   0.2500000   0.3500000  -0.0500000), wk =   0.0020000
        k(  241) = (   0.2500000   0.4500000   0.0500000), wk =   0.0020000
        k(  242) = (   0.2500000   0.4500000   0.1500000), wk =   0.0020000
        k(  243) = (   0.2500000   0.4500000   0.2500000), wk =   0.0020000
        k(  244) = (   0.2500000   0.4500000   0.3500000), wk =   0.0020000
        k(  245) = (   0.2500000   0.4500000   0.4500000), wk =   0.0020000
        k(  246) = (   0.2500000   0.4500000  -0.4500000), wk =   0.0020000
        k(  247) = (   0.2500000   0.4500000  -0.3500000), wk =   0.0020000
        k(  248) = (   0.2500000   0.4500000  -0.2500000), wk =   0.0020000
        k(  249) = (   0.2500000   0.4500000  -0.1500000), wk =   0.0020000
        k(  250) = (   0.2500000   0.4500000  -0.0500000), wk =   0.0020000
        k(  251) = (   0.2500000  -0.4500000   0.0500000), wk =   0.0020000
        k(  252) = (   0.2500000  -0.4500000   0.1500000), wk =   0.0020000
        k(  253) = (   0.2500000  -0.4500000   0.2500000), wk =   0.0020000
        k(  254) = (   0.2500000  -0.4500000   0.3500000), wk =   0.0020000
        k(  255) = (   0.2500000  -0.4500000   0.4500000), wk =   0.0020000
        k(  256) = (   0.2500000  -0.4500000  -0.4500000), wk =   0.0020000
        k(  257) = (   0.2500000  -0.4500000  -0.3500000), wk =   0.0020000
        k(  258) = (   0.2500000  -0.4500000  -0.2500000), wk =   0.0020000
        k(  259) = (   0.2500000  -0.4500000  -0.1500000), wk =   0.0020000
        k(  260) = (   0.2500000  -0.4500000  -0.0500000), wk =   0.0020000
        k(  261) = (   0.2500000  -0.3500000   0.0500000), wk =   0.0020000
        k(  262) = (   0.2500000  -0.3500000   0.1500000), wk =   0.0020000
        k(  263) = (   0.2500000  -0.3500000   0.2500000), wk =   0.0020000
        k(  264) = (   0.2500000  -0.3500000   0.3500000), wk =   0.0020000
        k(  265) = (   0.2500000  -0.3500000   0.4500000), wk =   0.0020000
        k(  266) = (   0.2500000  -0.3500000  -0.4500000), wk =   0.0020000
        k(  267) = (   0.2500000  -0.3500000  -0.3500000), wk =   0.0020000
        k(  268) = (   0.2500000  -0.3500000  -0.2500000), wk =   0.0020000
        k(  269) = (   0.2500000  -0.3500000  -0.1500000), wk =   0.0020000
        k(  270) = (   0.2500000  -0.3500000  -0.0500000), wk =   0.0020000
        k(  271) = (   0.2500000  -0.2500000   0.0500000), wk =   0.0020000
        k(  272) = (   0.2500000  -0.2500000   0.1500000), wk =   0.0020000
        k(  273) = (   0.2500000  -0.2500000   0.2500000), wk =   0.0020000
        k(  274) = (   0.2500000  -0.2500000   0.3500000), wk =   0.0020000
        k(  275) = (   0.2500000  -0.2500000   0.4500000), wk =   0.0020000
        k(  276) = (   0.2500000  -0.2500000  -0.4500000), wk =   0.0020000
        k(  277) = (   0.2500000  -0.2500000  -0.3500000), wk =   0.0020000
        k(  278) = (   0.2500000  -0.2500000  -0.2500000), wk =   0.0020000
        k(  279) = (   0.2500000  -0.2500000  -0.1500000), wk =   0.0020000
        k(  280) = (   0.2500000  -0.2500000  -0.0500000), wk =   0.0020000
        k(  281) = (   0.2500000  -0.1500000   0.0500000), wk =   0.0020000
        k(  282) = (   0.2500000  -0.1500000   0.1500000), wk =   0.0020000
        k(  283) = (   0.2500000  -0.1500000   0.2500000), wk =   0.0020000
        k(  284) = (   0.2500000  -0.1500000   0.3500000), wk =   0.0020000
        k(  285) = (   0.2500000  -0.1500000   0.4500000), wk =   0.0020000
        k(  286) = (   0.2500000  -0.1500000  -0.4500000), wk =   0.0020000
        k(  287) = (   0.2500000  -0.1500000  -0.3500000), wk =   0.0020000
        k(  288) = (   0.2500000  -0.1500000  -0.2500000), wk =   0.0020000
        k(  289) = (   0.2500000  -0.1500000  -0.1500000), wk =   0.0020000
        k(  290) = (   0.2500000  -0.1500000  -0.0500000), wk =   0.0020000
        k(  291) = (   0.2500000  -0.0500000   0.0500000), wk =   0.0020000
        k(  292) = (   0.2500000  -0.0500000   0.1500000), wk =   0.0020000
        k(  293) = (   0.2500000  -0.0500000   0.2500000), wk =   0.0020000
        k(  294) = (   0.2500000  -0.0500000   0.3500000), wk =   0.0020000
        k(  295) = (   0.2500000  -0.0500000   0.4500000), wk =   0.0020000
        k(  296) = (   0.2500000  -0.0500000  -0.4500000), wk =   0.0020000
        k(  297) = (   0.2500000  -0.0500000  -0.3500000), wk =   0.0020000
        k(  298) = (   0.2500000  -0.0500000  -0.2500000), wk =   0.0020000
        k(  299) = (   0.2500000  -0.0500000  -0.1500000), wk =   0.0020000
        k(  300) = (   0.2500000  -0.0500000  -0.0500000), wk =   0.0020000
        k(  301) = (   0.3500000   0.0500000   0.0500000), wk =   0.0020000
        k(  302) = (   0.3500000   0.0500000   0.1500000), wk =   0.0020000
        k(  303) = (   0.3500000   0.0500000   0.2500000), wk =   0.0020000
        k(  304) = (   0.3500000   0.0500000   0.3500000), wk =   0.0020000
        k(  305) = (   0.3500000   0.0500000   0.4500000), wk =   0.0020000
        k(  306) = (   0.3500000   0.0500000  -0.4500000), wk =   0.0020000
        k(  307) = (   0.3500000   0.0500000  -0.3500000), wk =   0.0020000
        k(  308) = (   0.3500000   0.0500000  -0.2500000), wk =   0.0020000
        k(  309) = (   0.3500000   0.0500000  -0.1500000), wk =   0.0020000
        k(  310) = (   0.3500000   0.0500000  -0.0500000), wk =   0.0020000
        k(  311) = (   0.3500000   0.1500000   0.0500000), wk =   0.0020000
        k(  312) = (   0.3500000   0.1500000   0.1500000), wk =   0.0020000
        k(  313) = (   0.3500000   0.1500000   0.2500000), wk =   0.0020000
        k(  314) = (   0.3500000   0.1500000   0.3500000), wk =   0.0020000
        k(  315) = (   0.3500000   0.1500000   0.4500000), wk =   0.0020000
        k(  316) = (   0.3500000   0.1500000  -0.4500000), wk =   0.0020000
        k(  317) = (   0.3500000   0.1500000  -0.3500000), wk =   0.0020000
        k(  318) = (   0.3500000   0.1500000  -0.2500000), wk =   0.0020000
        k(  319) = (   0.3500000   0.1500000  -0.1500000), wk =   0.0020000
        k(  320) = (   0.3500000   0.1500000  -0.0500000), wk =   0.0020000
        k(  321) = (   0.3500000   0.2500000   0.0500000), wk =   0.0020000
        k(  322) = (   0.3500000   0.2500000   0.1500000), wk =   0.0020000
        k(  323) = (   0.3500000   0.2500000   0.2500000), wk =   0.0020000
        k(  324) = (   0.3500000   0.2500000   0.3500000), wk =   0.0020000
        k(  325) = (   0.3500000   0.2500000   0.4500000), wk =   0.0020000
        k(  326) = (   0.3500000   0.2500000  -0.4500000), wk =   0.0020000
        k(  327) = (   0.3500000   0.2500000  -0.3500000), wk =   0.0020000
        k(  328) = (   0.3500000   0.2500000  -0.2500000), wk =   0.0020000
        k(  329) = (   0.3500000   0.2500000  -0.1500000), wk =   0.0020000
        k(  330) = (   0.3500000   0.2500000  -0.0500000), wk =   0.0020000
        k(  331) = (   0.3500000   0.3500000   0.0500000), wk =   0.0020000
        k(  332) = (   0.3500000   0.3500000   0.1500000), wk =   0.0020000
        k(  333) = (   0.3500000   0.3500000   0.2500000), wk =   0.0020000
        k(  334) = (   0.3500000   0.3500000   0.3500000), wk =   0.0020000
        k(  335) = (   0.3500000   0.3500000   0.4500000), wk =   0.0020000
        k(  336) = (   0.3500000   0.3500000  -0.4500000), wk =   0.0020000
        k(  337) = (   0.3500000   0.3500000  -0.3500000), wk =   0.0020000
        k(  338) = (   0.3500000   0.3500000  -0.2500000), wk =   0.0020000
        k(  339) = (   0.3500000   0.3500000  -0.1500000), wk =   0.0020000
        k(  340) = (   0.3500000   0.3500000  -0.0500000), wk =   0.0020000
        k(  341) = (   0.3500000   0.4500000   0.0500000), wk =   0.0020000
        k(  342) = (   0.3500000   0.4500000   0.1500000), wk =   0.0020000
        k(  343) = (   0.3500000   0.4500000   0.2500000), wk =   0.0020000
        k(  344) = (   0.3500000   0.4500000   0.3500000), wk =   0.0020000
        k(  345) = (   0.3500000   0.4500000   0.4500000), wk =   0.0020000
        k(  346) = (   0.3500000   0.4500000  -0.4500000), wk =   0.0020000
        k(  347) = (   0.3500000   0.4500000  -0.3500000), wk =   0.0020000
        k(  348) = (   0.3500000   0.4500000  -0.2500000), wk =   0.0020000
        k(  349) = (   0.3500000   0.4500000  -0.1500000), wk =   0.0020000
        k(  350) = (   0.3500000   0.4500000  -0.0500000), wk =   0.0020000
        k(  351) = (   0.3500000  -0.4500000   0.0500000), wk =   0.0020000
        k(  352) = (   0.3500000  -0.4500000   0.1500000), wk =   0.0020000
        k(  353) = (   0.3500000  -0.4500000   0.2500000), wk =   0.0020000
        k(  354) = (   0.3500000  -0.4500000   0.3500000), wk =   0.0020000
        k(  355) = (   0.3500000  -0.4500000   0.4500000), wk =   0.0020000
        k(  356) = (   0.3500000  -0.4500000  -0.4500000), wk =   0.0020000
        k(  357) = (   0.3500000  -0.4500000  -0.3500000), wk =   0.0020000
        k(  358) = (   0.3500000  -0.4500000  -0.2500000), wk =   0.0020000
        k(  359) = (   0.3500000  -0.4500000  -0.1500000), wk =   0.0020000
        k(  360) = (   0.3500000  -0.4500000  -0.0500000), wk =   0.0020000
        k(  361) = (   0.3500000  -0.3500000   0.0500000), wk =   0.0020000
        k(  362) = (   0.3500000  -0.3500000   0.1500000), wk =   0.0020000
        k(  363) = (   0.3500000  -0.3500000   0.2500000), wk =   0.0020000
        k(  364) = (   0.3500000  -0.3500000   0.3500000), wk =   0.0020000
        k(  365) = (   0.3500000  -0.3500000   0.4500000), wk =   0.0020000
        k(  366) = (   0.3500000  -0.3500000  -0.4500000), wk =   0.0020000
        k(  367) = (   0.3500000  -0.3500000  -0.3500000), wk =   0.0020000
        k(  368) = (   0.3500000  -0.3500000  -0.2500000), wk =   0.0020000
        k(  369) = (   0.3500000  -0.3500000  -0.1500000), wk =   0.0020000
        k(  370) = (   0.3500000  -0.3500000  -0.0500000), wk =   0.0020000
        k(  371) = (   0.3500000  -0.2500000   0.0500000), wk =   0.0020000
        k(  372) = (   0.3500000  -0.2500000   0.1500000), wk =   0.0020000
        k(  373) = (   0.3500000  -0.2500000   0.2500000), wk =   0.0020000
        k(  374) = (   0.3500000  -0.2500000   0.3500000), wk =   0.0020000
        k(  375) = (   0.3500000  -0.2500000   0.4500000), wk =   0.0020000
        k(  376) = (   0.3500000  -0.2500000  -0.4500000), wk =   0.0020000
        k(  377) = (   0.3500000  -0.2500000  -0.3500000), wk =   0.0020000
        k(  378) = (   0.3500000  -0.2500000  -0.2500000), wk =   0.0020000
        k(  379) = (   0.3500000  -0.2500000  -0.1500000), wk =   0.0020000
        k(  380) = (   0.3500000  -0.2500000  -0.0500000), wk =   0.0020000
        k(  381) = (   0.3500000  -0.1500000   0.0500000), wk =   0.0020000
        k(  382) = (   0.3500000  -0.1500000   0.1500000), wk =   0.0020000
        k(  383) = (   0.3500000  -0.1500000   0.2500000), wk =   0.0020000
        k(  384) = (   0.3500000  -0.1500000   0.3500000), wk =   0.0020000
        k(  385) = (   0.3500000  -0.1500000   0.4500000), wk =   0.0020000
        k(  386) = (   0.3500000  -0.1500000  -0.4500000), wk =   0.0020000
        k(  387) = (   0.3500000  -0.1500000  -0.3500000), wk =   0.0020000
        k(  388) = (   0.3500000  -0.1500000  -0.2500000), wk =   0.0020000
        k(  389) = (   0.3500000  -0.1500000  -0.1500000), wk =   0.0020000
        k(  390) = (   0.3500000  -0.1500000  -0.0500000), wk =   0.0020000
        k(  391) = (   0.3500000  -0.0500000   0.0500000), wk =   0.0020000
        k(  392) = (   0.3500000  -0.0500000   0.1500000), wk =   0.0020000
        k(  393) = (   0.3500000  -0.0500000   0.2500000), wk =   0.0020000
        k(  394) = (   0.3500000  -0.0500000   0.3500000), wk =   0.0020000
        k(  395) = (   0.3500000  -0.0500000   0.4500000), wk =   0.0020000
        k(  396) = (   0.3500000  -0.0500000  -0.4500000), wk =   0.0020000
        k(  397) = (   0.3500000  -0.0500000  -0.3500000), wk =   0.0020000
        k(  398) = (   0.3500000  -0.0500000  -0.2500000), wk =   0.0020000
        k(  399) = (   0.3500000  -0.0500000  -0.1500000), wk =   0.0020000
        k(  400) = (   0.3500000  -0.0500000  -0.0500000), wk =   0.0020000
        k(  401) = (   0.4500000   0.0500000   0.0500000), wk =   0.0020000
        k(  402) = (   0.4500000   0.0500000   0.1500000), wk =   0.0020000
        k(  403) = (   0.4500000   0.0500000   0.2500000), wk =   0.0020000
        k(  404) = (   0.4500000   0.0500000   0.3500000), wk =   0.0020000
        k(  405) = (   0.4500000   0.0500000   0.4500000), wk =   0.0020000
        k(  406) = (   0.4500000   0.0500000  -0.4500000), wk =   0.0020000
        k(  407) = (   0.4500000   0.0500000  -0.3500000), wk =   0.0020000
        k(  408) = (   0.4500000   0.0500000  -0.2500000), wk =   0.0020000
        k(  409) = (   0.4500000   0.0500000  -0.1500000), wk =   0.0020000
        k(  410) = (   0.4500000   0.0500000  -0.0500000), wk =   0.0020000
        k(  411) = (   0.4500000   0.1500000   0.0500000), wk =   0.0020000
        k(  412) = (   0.4500000   0.1500000   0.1500000), wk =   0.0020000
        k(  413) = (   0.4500000   0.1500000   0.2500000), wk =   0.0020000
        k(  414) = (   0.4500000   0.1500000   0.3500000), wk =   0.0020000
        k(  415) = (   0.4500000   0.1500000   0.4500000), wk =   0.0020000
        k(  416) = (   0.4500000   0.1500000  -0.4500000), wk =   0.0020000
        k(  417) = (   0.4500000   0.1500000  -0.3500000), wk =   0.0020000
        k(  418) = (   0.4500000   0.1500000  -0.2500000), wk =   0.0020000
        k(  419) = (   0.4500000   0.1500000  -0.1500000), wk =   0.0020000
        k(  420) = (   0.4500000   0.1500000  -0.0500000), wk =   0.0020000
        k(  421) = (   0.4500000   0.2500000   0.0500000), wk =   0.0020000
        k(  422) = (   0.4500000   0.2500000   0.1500000), wk =   0.0020000
        k(  423) = (   0.4500000   0.2500000   0.2500000), wk =   0.0020000
        k(  424) = (   0.4500000   0.2500000   0.3500000), wk =   0.0020000
        k(  425) = (   0.4500000   0.2500000   0.4500000), wk =   0.0020000
        k(  426) = (   0.4500000   0.2500000  -0.4500000), wk =   0.0020000
        k(  427) = (   0.4500000   0.2500000  -0.3500000), wk =   0.0020000
        k(  428) = (   0.4500000   0.2500000  -0.2500000), wk =   0.0020000
        k(  429) = (   0.4500000   0.2500000  -0.1500000), wk =   0.0020000
        k(  430) = (   0.4500000   0.2500000  -0.0500000), wk =   0.0020000
        k(  431) = (   0.4500000   0.3500000   0.0500000), wk =   0.0020000
        k(  432) = (   0.4500000   0.3500000   0.1500000), wk =   0.0020000
        k(  433) = (   0.4500000   0.3500000   0.2500000), wk =   0.0020000
        k(  434) = (   0.4500000   0.3500000   0.3500000), wk =   0.0020000
        k(  435) = (   0.4500000   0.3500000   0.4500000), wk =   0.0020000
        k(  436) = (   0.4500000   0.3500000  -0.4500000), wk =   0.0020000
        k(  437) = (   0.4500000   0.3500000  -0.3500000), wk =   0.0020000
        k(  438) = (   0.4500000   0.3500000  -0.2500000), wk =   0.0020000
        k(  439) = (   0.4500000   0.3500000  -0.1500000), wk =   0.0020000
        k(  440) = (   0.4500000   0.3500000  -0.0500000), wk =   0.0020000
        k(  441) = (   0.4500000   0.4500000   0.0500000), wk =   0.0020000
        k(  442) = (   0.4500000   0.4500000   0.1500000), wk =   0.0020000
        k(  443) = (   0.4500000   0.4500000   0.2500000), wk =   0.0020000
        k(  444) = (   0.4500000   0.4500000   0.3500000), wk =   0.0020000
        k(  445) = (   0.4500000   0.4500000   0.4500000), wk =   0.0020000
        k(  446) = (   0.4500000   0.4500000  -0.4500000), wk =   0.0020000
        k(  447) = (   0.4500000   0.4500000  -0.3500000), wk =   0.0020000
        k(  448) = (   0.4500000   0.4500000  -0.2500000), wk =   0.0020000
        k(  449) = (   0.4500000   0.4500000  -0.1500000), wk =   0.0020000
        k(  450) = (   0.4500000   0.4500000  -0.0500000), wk =   0.0020000
        k(  451) = (   0.4500000  -0.4500000   0.0500000), wk =   0.0020000
        k(  452) = (   0.4500000  -0.4500000   0.1500000), wk =   0.0020000
        k(  453) = (   0.4500000  -0.4500000   0.2500000), wk =   0.0020000
        k(  454) = (   0.4500000  -0.4500000   0.3500000), wk =   0.0020000
        k(  455) = (   0.4500000  -0.4500000   0.4500000), wk =   0.0020000
        k(  456) = (   0.4500000  -0.4500000  -0.4500000), wk =   0.0020000
        k(  457) = (   0.4500000  -0.4500000  -0.3500000), wk =   0.0020000
        k(  458) = (   0.4500000  -0.4500000  -0.2500000), wk =   0.0020000
        k(  459) = (   0.4500000  -0.4500000  -0.1500000), wk =   0.0020000
        k(  460) = (   0.4500000  -0.4500000  -0.0500000), wk =   0.0020000
        k(  461) = (   0.4500000  -0.3500000   0.0500000), wk =   0.0020000
        k(  462) = (   0.4500000  -0.3500000   0.1500000), wk =   0.0020000
        k(  463) = (   0.4500000  -0.3500000   0.2500000), wk =   0.0020000
        k(  464) = (   0.4500000  -0.3500000   0.3500000), wk =   0.0020000
        k(  465) = (   0.4500000  -0.3500000   0.4500000), wk =   0.0020000
        k(  466) = (   0.4500000  -0.3500000  -0.4500000), wk =   0.0020000
        k(  467) = (   0.4500000  -0.3500000  -0.3500000), wk =   0.0020000
        k(  468) = (   0.4500000  -0.3500000  -0.2500000), wk =   0.0020000
        k(  469) = (   0.4500000  -0.3500000  -0.1500000), wk =   0.0020000
        k(  470) = (   0.4500000  -0.3500000  -0.0500000), wk =   0.0020000
        k(  471) = (   0.4500000  -0.2500000   0.0500000), wk =   0.0020000
        k(  472) = (   0.4500000  -0.2500000   0.1500000), wk =   0.0020000
        k(  473) = (   0.4500000  -0.2500000   0.2500000), wk =   0.0020000
        k(  474) = (   0.4500000  -0.2500000   0.3500000), wk =   0.0020000
        k(  475) = (   0.4500000  -0.2500000   0.4500000), wk =   0.0020000
        k(  476) = (   0.4500000  -0.2500000  -0.4500000), wk =   0.0020000
        k(  477) = (   0.4500000  -0.2500000  -0.3500000), wk =   0.0020000
[...]

     occupation numbers 
     1.0000   1.0000   1.0000   1.0000   1.0000   1.0000   1.0000   1.0000
     1.0000   1.0000   1.0000   1.0000   1.0000   1.0000   1.0000   0.0000
     0.0000   0.0000   0.0000   0.0000   0.0000   0.0000   0.0000   0.0000

          k = 0.5921-0.4102 0.1412 (   902 PWs)   bands (ev):

   -27.6865 -27.6813 -27.6773 -27.6762 -27.6698 -15.7675 -15.7547 -15.7517
   -15.7486 -15.7423  -1.8263   0.8303   4.2464   5.0095   8.2549  10.5498
    14.1955  14.9430  15.1322  16.0206  20.2323  21.1341  22.0400  22.4232

     occupation numbers 
     1.0000   1.0000   1.0000   1.0000   1.0000   1.0000   1.0000   1.0000
     1.0000   1.0000   1.0000   1.0000   1.0000   1.0000   1.0000   0.0000
     0.0000   0.0000   0.0000   0.0000   0.0000   0.0000   0.0000   0.0000

          k = 0.5329-0.5128 0.1815 (   903 PWs)   bands (ev):

   -27.6888 -27.6816 -27.6767 -27.6758 -27.6697 -15.7706 -15.7568 -15.7509
   -15.7483 -15.7415  -1.8320   0.9709   4.2523   4.5633   8.4915  10.5315
    14.0597  15.0397  15.6484  16.0412  20.8326  21.1688  22.2449  22.4411

     occupation numbers 
     1.0000   1.0000   1.0000   1.0000   1.0000   1.0000   1.0000   1.0000
     1.0000   1.0000   1.0000   1.0000   1.0000   1.0000   1.0000   0.0000
     0.0000   0.0000   0.0000   0.0000   0.0000   0.0000   0.0000   0.0000

          k = 0.4737-0.6153 0.2218 (   904 PWs)   bands (ev):

   -27.6882 -27.6832 -27.6771 -27.6753 -27.6687 -15.7699 -15.7575 -15.7513
   -15.7506 -15.7397  -1.9426   1.0330   4.0224   5.3380   7.6051  11.5266
    13.3230  14.8373  15.4704  17.0878  20.1409  21.1634  21.5816  23.1712

     occupation numbers 
     1.0000   1.0000   1.0000   1.0000   1.0000   1.0000   1.0000   1.0000
     1.0000   1.0000   1.0000   1.0000   1.0000   1.0000   1.0000   0.0000
     0.0000   0.0000   0.0000   0.0000   0.0000   0.0000   0.0000   0.0000

          k = 0.4145-0.7179 0.2622 (   902 PWs)   bands (ev):

   -27.6878 -27.6825 -27.6776 -27.6747 -27.6692 -15.7685 -15.7545 -15.7530
   -15.7492 -15.7407  -2.1117   1.0275   4.3046   6.2417   6.8010  12.4563
    12.5964  14.2084  14.9969  18.3230  19.1861  21.4077  21.8404  22.9264

     occupation numbers 
     1.0000   1.0000   1.0000   1.0000   1.0000   1.0000   1.0000   1.0000
     1.0000   1.0000   1.0000   1.0000   1.0000   1.0000   1.0000   0.0000
     0.0000   0.0000   0.0000   0.0000   0.0000   0.0000   0.0000   0.0000

          k = 0.9474 0.2051-0.1008 (   902 PWs)   bands (ev):

   -27.6854 -27.6839 -27.6783 -27.6736 -27.6710 -15.7627 -15.7580 -15.7555
   -15.7469 -15.7435  -2.2748   1.0159   4.9206   5.6901   7.8751  11.1395
    13.3025  13.8964  14.6717  17.7347  19.9422  20.4279  21.3752  22.0568

     occupation numbers 
     1.0000   1.0000   1.0000   1.0000   1.0000   1.0000   1.0000   1.0000
     1.0000   1.0000   1.0000   1.0000   1.0000   1.0000   1.0000   0.0000
     0.0000   0.0000   0.0000   0.0000   0.0000   0.0000   0.0000   0.0000

          k = 0.8882 0.1026-0.0605 (   905 PWs)   bands (ev):

   -27.6876 -27.6842 -27.6785 -27.6740 -27.6710 -15.7671 -15.7593 -15.7564
   -15.7478 -15.7434  -2.3740   0.9970   4.8601   6.2468   8.7073  10.1266
    12.5242  14.1382  15.3788  17.1758  18.1515  19.6470  21.7384  23.7018

     occupation numbers 
     1.0000   1.0000   1.0000   1.0000   1.0000   1.0000   1.0000   1.0000
     1.0000   1.0000   1.0000   1.0000   1.0000   1.0000   1.0000   0.0000
     0.0000   0.0000   0.0000   0.0000   0.0000   0.0000   0.0000   0.0000

          k = 0.8289 0.0000-0.0202 (   902 PWs)   bands (ev):

   -27.6896 -27.6805 -27.6769 -27.6748 -27.6704 -15.7703 -15.7550 -15.7510
   -15.7468 -15.7431  -2.3751   0.9117   4.8077   7.1448   8.0240  10.8626
    11.2253  14.3079  16.0292  16.9986  17.0777  19.7965  21.5211  24.9001

     occupation numbers 
     1.0000   1.0000   1.0000   1.0000   1.0000   1.0000   1.0000   1.0000
     1.0000   1.0000   1.0000   1.0000   1.0000   1.0000   1.0000   0.0000
     0.0000   0.0000   0.0000   0.0000   0.0000   0.0000   0.0000   0.0000

          k = 0.7697-0.1026 0.0202 (   899 PWs)   bands (ev):

   -27.6881 -27.6807 -27.6768 -27.6738 -27.6699 -15.7668 -15.7572 -15.7494
   -15.7460 -15.7395  -2.2748   0.7694   5.2129   6.2375   8.5895  10.0706
    12.2799  13.5335  15.3856  17.1966  18.5472  20.6951  21.3314  22.8448

     occupation numbers 
     1.0000   1.0000   1.0000   1.0000   1.0000   1.0000   1.0000   1.0000
     1.0000   1.0000   1.0000   1.0000   1.0000   1.0000   1.0000   0.0000
     0.0000   0.0000   0.0000   0.0000   0.0000   0.0000   0.0000   0.0000

          k = 0.7105-0.2051 0.0605 (   905 PWs)   bands (ev):

   -27.6859 -27.6834 -27.6791 -27.6760 -27.6712 -15.7643 -15.7588 -15.7552
   -15.7503 -15.7454  -2.1053   0.6705   5.1795   6.0323   7.5453  11.2344
    12.4763  13.4971  14.8539  17.6959  19.7597  20.6751  21.3605  22.8794

     occupation numbers 
     1.0000   1.0000   1.0000   1.0000   1.0000   1.0000   1.0000   1.0000
     1.0000   1.0000   1.0000   1.0000   1.0000   1.0000   1.0000   0.0000
     0.0000   0.0000   0.0000   0.0000   0.0000   0.0000   0.0000   0.0000

          k = 0.5921-0.2051 0.1412 (   892 PWs)   bands (ev):

   -27.6829 -27.6791 -27.6765 -27.6750 -27.6686 -15.7558 -15.7532 -15.7499
   -15.7442 -15.7381  -2.0886   0.3834   5.5087   6.8162   7.8661  10.2878
    11.6330  12.9143  16.5535  17.0775  18.4542  20.4663  22.2008  22.7194

     occupation numbers 
     1.0000   1.0000   1.0000   1.0000   1.0000   1.0000   1.0000   1.0000
     1.0000   1.0000   1.0000   1.0000   1.0000   1.0000   1.0000   0.0000
     0.0000   0.0000   0.0000   0.0000   0.0000   0.0000   0.0000   0.0000

          k = 0.5329-0.3077 0.1815 (   898 PWs)   bands (ev):

   -27.6844 -27.6818 -27.6763 -27.6752 -27.6703 -15.7619 -15.7530 -15.7507
   -15.7481 -15.7422  -2.0037   0.6734   4.8401   5.6864   8.2192  10.2210
    13.3720  13.9495  15.2026  16.7640  19.4375  20.6866  21.6498  22.7826

     occupation numbers 
     1.0000   1.0000   1.0000   1.0000   1.0000   1.0000   1.0000   1.0000
     1.0000   1.0000   1.0000   1.0000   1.0000   1.0000   1.0000   0.0000
     0.0000   0.0000   0.0000   0.0000   0.0000   0.0000   0.0000   0.0000

          k = 0.4737-0.4102 0.2218 (   905 PWs)   bands (ev):

   -27.6882 -27.6829 -27.6775 -27.6765 -27.6693 -15.7694 -15.7612 -15.7532
   -15.7478 -15.7407  -1.9395   1.0353   4.3324   5.0339   7.6537  11.2737
    13.3772  14.9234  15.1002  17.2402  20.2347  21.0353  21.9195  22.5416

     occupation numbers 
     1.0000   1.0000   1.0000   1.0000   1.0000   1.0000   1.0000   1.0000
     1.0000   1.0000   1.0000   1.0000   1.0000   1.0000   1.0000   0.0000
     0.0000   0.0000   0.0000   0.0000   0.0000   0.0000   0.0000   0.0000

          k = 0.4145-0.5128 0.2622 (   905 PWs)   bands (ev):

   -27.6882 -27.6805 -27.6782 -27.6757 -27.6695 -15.7706 -15.7553 -15.7536
   -15.7474 -15.7420  -1.9253   1.3194   3.8603   5.2299   6.8201  12.0768
    13.0281  15.0611  15.9431  18.1837  20.2269  21.4513  22.1608  22.6046

     occupation numbers 
     1.0000   1.0000   1.0000   1.0000   1.0000   1.0000   1.0000   1.0000
     1.0000   1.0000   1.0000   1.0000   1.0000   1.0000   1.0000   0.0000
     0.0000   0.0000   0.0000   0.0000   0.0000   0.0000   0.0000   0.0000

          k = 0.3553-0.6153 0.3025 (   907 PWs)   bands (ev):

   -27.6889 -27.6825 -27.6782 -27.6751 -27.6706 -15.7746 -15.7584 -15.7506
   -15.7475 -15.7443  -1.9880   1.4510   3.7594   5.8423   6.0981  11.9690
    13.7667  14.5234  16.1068  19.2228  20.1766  20.4549  21.7307  22.7362

     occupation numbers 
     1.0000   1.0000   1.0000   1.0000   1.0000   1.0000   1.0000   1.0000
     1.0000   1.0000   1.0000   1.0000   1.0000   1.0000   1.0000   0.0000
     0.0000   0.0000   0.0000   0.0000   0.0000   0.0000   0.0000   0.0000

          k = 0.8882 0.3077-0.0605 (   906 PWs)   bands (ev):

   -27.6874 -27.6826 -27.6786 -27.6749 -27.6726 -15.7683 -15.7586 -15.7534
   -15.7501 -15.7455  -2.1063   1.3904   4.1540   5.3231   6.9586  12.1132
    12.9981  14.9331  15.3477  18.4004  19.8406  21.5295  21.8618  22.2380

     occupation numbers 
     1.0000   1.0000   1.0000   1.0000   1.0000   1.0000   1.0000   1.0000
     1.0000   1.0000   1.0000   1.0000   1.0000   1.0000   1.0000   0.0000
     0.0000   0.0000   0.0000   0.0000   0.0000   0.0000   0.0000   0.0000

          k = 0.8289 0.2051-0.0202 (   906 PWs)   bands (ev):

   -27.6872 -27.6850 -27.6783 -27.6759 -27.6707 -15.7650 -15.7614 -15.7566
   -15.7509 -15.7437  -2.2195   1.1344   4.8617   5.2208   7.9540  11.0905
    13.5083  13.9931  14.8013  17.6040  19.4738  20.3783  21.9343  22.7475

     occupation numbers 
     1.0000   1.0000   1.0000   1.0000   1.0000   1.0000   1.0000   1.0000
     1.0000   1.0000   1.0000   1.0000   1.0000   1.0000   1.0000   0.0000
     0.0000   0.0000   0.0000   0.0000   0.0000   0.0000   0.0000   0.0000

          k = 0.7697 0.1026 0.0202 (   899 PWs)   bands (ev):

   -27.6881 -27.6807 -27.6768 -27.6738 -27.6699 -15.7668 -15.7572 -15.7494
   -15.7460 -15.7395  -2.2748   0.7694   5.2129   6.2376   8.5895  10.0706
    12.2799  13.5335  15.3856  17.1966  18.5472  20.6951  21.3314  22.8448

     occupation numbers 
     1.0000   1.0000   1.0000   1.0000   1.0000   1.0000   1.0000   1.0000
     1.0000   1.0000   1.0000   1.0000   1.0000   1.0000   1.0000   0.0000
     0.0000   0.0000   0.0000   0.0000   0.0000   0.0000   0.0000   0.0000

          k = 0.7105 0.0000 0.0605 (   897 PWs)   bands (ev):

   -27.6879 -27.6780 -27.6770 -27.6762 -27.6688 -15.7678 -15.7566 -15.7513
   -15.7404 -15.7387  -2.2550   0.4465   5.8051   7.2136   8.1921  10.5484
    10.6402  12.3670  16.8892  17.2648  18.0571  20.8246  21.2659  22.7099

     occupation numbers 
     1.0000   1.0000   1.0000   1.0000   1.0000   1.0000   1.0000   1.0000
     1.0000   1.0000   1.0000   1.0000   1.0000   1.0000   1.0000   0.0000
     0.0000   0.0000   0.0000   0.0000   0.0000   0.0000   0.0000   0.0000

          k = 0.6513-0.1026 0.1008 (   897 PWs)   bands (ev):

   -27.6866 -27.6790 -27.6780 -27.6753 -27.6697 -15.7640 -15.7556 -15.7494
   -15.7456 -15.7413  -2.1804   0.2965   6.3710   6.7192   8.3541  10.0586
    11.1885  11.7401  16.8052  17.4755  19.6076  19.9229  20.6814  22.4352

     occupation numbers 
     1.0000   1.0000   1.0000   1.0000   1.0000   1.0000   1.0000   1.0000
     1.0000   1.0000   1.0000   1.0000   1.0000   1.0000   1.0000   0.0000
     0.0000   0.0000   0.0000   0.0000   0.0000   0.0000   0.0000   0.0000

          k = 0.5329-0.1026 0.1815 (   896 PWs)   bands (ev):

   -27.6859 -27.6795 -27.6777 -27.6749 -27.6709 -15.7622 -15.7556 -15.7505
   -15.7464 -15.7407  -2.3001   0.3271   6.7175   7.4877   8.3913   9.8940
    10.3560  11.2460  16.9657  18.2354  18.8576  19.9841  20.2636  22.1106

     occupation numbers 
     1.0000   1.0000   1.0000   1.0000   1.0000   1.0000   1.0000   1.0000
     1.0000   1.0000   1.0000   1.0000   1.0000   1.0000   1.0000   0.0000
     0.0000   0.0000   0.0000   0.0000   0.0000   0.0000   0.0000   0.0000

          k = 0.4737-0.2051 0.2218 (   899 PWs)   bands (ev):

   -27.6849 -27.6823 -27.6761 -27.6755 -27.6715 -15.7596 -15.7571 -15.7515
   -15.7477 -15.7444  -2.2996   0.7037   5.7253   6.6735   7.5162  10.8403
    11.9976  12.6147  15.0186  18.7076  19.0330  20.1357  20.7788  22.1124

     occupation numbers 
     1.0000   1.0000   1.0000   1.0000   1.0000   1.0000   1.0000   1.0000
     1.0000   1.0000   1.0000   1.0000   1.0000   1.0000   1.0000   0.0000
     0.0000   0.0000   0.0000   0.0000   0.0000   0.0000   0.0000   0.0000

          k = 0.4145-0.3077 0.2622 (   902 PWs)   bands (ev):

   -27.6861 -27.6818 -27.6768 -27.6758 -27.6705 -15.7643 -15.7572 -15.7519
   -15.7485 -15.7424  -2.2296   1.1803   4.8116   5.9357   6.7704  12.1011
    13.0634  13.7898  14.2346  18.9720  20.0554  20.4663  20.9962  21.5028

     occupation numbers 
     1.0000   1.0000   1.0000   1.0000   1.0000   1.0000   1.0000   1.0000
     1.0000   1.0000   1.0000   1.0000   1.0000   1.0000   1.0000   0.0000
     0.0000   0.0000   0.0000   0.0000   0.0000   0.0000   0.0000   0.0000

          k = 0.3553-0.4102 0.3025 (   905 PWs)   bands (ev):

   -27.6873 -27.6822 -27.6792 -27.6747 -27.6692 -15.7677 -15.7583 -15.7557
   -15.7481 -15.7396  -2.1125   1.5775   4.1378   5.5821   6.1399  11.8490
    13.7457  14.7197  15.5267  19.4634  19.7137  21.2603  21.6720  22.1290

     occupation numbers 
     1.0000   1.0000   1.0000   1.0000   1.0000   1.0000   1.0000   1.0000
     1.0000   1.0000   1.0000   1.0000   1.0000   1.0000   1.0000   0.0000
     0.0000   0.0000   0.0000   0.0000   0.0000   0.0000   0.0000   0.0000

          k = 0.2961-0.5128 0.3428 (   899 PWs)   bands (ev):

   -27.6853 -27.6793 -27.6790 -27.6726 -27.6672 -15.7698 -15.7554 -15.7492
   -15.7382 -15.7372  -2.0099   1.7300   3.7737   5.6656   5.6750  11.4665
    14.5427  14.9773  16.3542  19.3835  20.3099  21.4212  21.6399  22.4046

     occupation numbers 
     1.0000   1.0000   1.0000   1.0000   1.0000   1.0000   1.0000   1.0000
     1.0000   1.0000   1.0000   1.0000   1.0000   1.0000   1.0000   0.0000
     0.0000   0.0000   0.0000   0.0000   0.0000   0.0000   0.0000   0.0000

          k = 0.8289 0.4102-0.0202 (   908 PWs)   bands (ev):

   -27.6886 -27.6815 -27.6797 -27.6771 -27.6688 -15.7721 -15.7594 -15.7560
   -15.7494 -15.7402  -1.9814   1.5880   3.7613   5.4716   6.1196  11.8069
    13.9657  14.8188  16.2283  19.3856  19.8937  21.1621  21.9518  22.6475

     occupation numbers 
     1.0000   1.0000   1.0000   1.0000   1.0000   1.0000   1.0000   1.0000
     1.0000   1.0000   1.0000   1.0000   1.0000   1.0000   1.0000   0.0000
     0.0000   0.0000   0.0000   0.0000   0.0000   0.0000   0.0000   0.0000

          k = 0.7697 0.3077 0.0202 (   911 PWs)   bands (ev):

   -27.6888 -27.6850 -27.6807 -27.6773 -27.6700 -15.7717 -15.7641 -15.7575
   -15.7537 -15.7423  -2.0283   1.1708   4.2441   5.6019   6.7700  12.3599
    13.1925  13.9746  15.1544  18.3444  20.1746  21.0795  22.0156  22.3489

     occupation numbers 
     1.0000   1.0000   1.0000   1.0000   1.0000   1.0000   1.0000   1.0000
     1.0000   1.0000   1.0000   1.0000   1.0000   1.0000   1.0000   0.0000
     0.0000   0.0000   0.0000   0.0000   0.0000   0.0000   0.0000   0.0000

          k = 0.7105 0.2051 0.0605 (   905 PWs)   bands (ev):

   -27.6859 -27.6834 -27.6791 -27.6760 -27.6712 -15.7643 -15.7588 -15.7553
   -15.7503 -15.7454  -2.1053   0.6705   5.1795   6.0323   7.5453  11.2343
    12.4763  13.4971  14.8539  17.6959  19.7597  20.6751  21.3605  22.8794

     occupation numbers 
     1.0000   1.0000   1.0000   1.0000   1.0000   1.0000   1.0000   1.0000
     1.0000   1.0000   1.0000   1.0000   1.0000   1.0000   1.0000   0.0000
     0.0000   0.0000   0.0000   0.0000   0.0000   0.0000   0.0000   0.0000

          k = 0.6513 0.1026 0.1008 (   897 PWs)   bands (ev):

   -27.6866 -27.6790 -27.6780 -27.6753 -27.6697 -15.7640 -15.7556 -15.7494
   -15.7456 -15.7413  -2.1804   0.2965   6.3710   6.7192   8.3541  10.0586
    11.1885  11.7401  16.8052  17.4755  19.6077  19.9229  20.6814  22.4352

     occupation numbers 
     1.0000   1.0000   1.0000   1.0000   1.0000   1.0000   1.0000   1.0000
     1.0000   1.0000   1.0000   1.0000   1.0000   1.0000   1.0000   0.0000
     0.0000   0.0000   0.0000   0.0000   0.0000   0.0000   0.0000   0.0000

          k = 0.5921 0.0000 0.1412 (   894 PWs)   bands (ev):

   -27.6850 -27.6790 -27.6779 -27.6753 -27.6692 -15.7597 -15.7554 -15.7493
   -15.7446 -15.7409  -2.2494   0.1721   7.3217   7.3979   8.6936   9.9701
    10.1731  10.1960  17.4268  18.7719  19.4948  19.7368  20.2731  20.3119

     occupation numbers 
     1.0000   1.0000   1.0000   1.0000   1.0000   1.0000   1.0000   1.0000
     1.0000   1.0000   1.0000   1.0000   1.0000   1.0000   1.0000   0.0000
     0.0000   0.0000   0.0000   0.0000   0.0000   0.0000   0.0000   0.0000

     the Fermi energy is     9.2879 ev

!    total energy              =    -818.88275803 Ry
     Harris-Foulkes estimate   =    -818.88275803 Ry
     estimated scf accuracy    <          9.0E-10 Ry

     total all-electron energy =    -17778.330055 Ry

     The total energy is the sum of the following terms:

     one-electron contribution =    -228.27854215 Ry
     hartree contribution      =     137.22578266 Ry
     xc contribution           =    -101.53818028 Ry
     ewald contribution        =    -225.97213060 Ry
     one-center paw contrib.   =    -400.31972211 Ry
     smearing contrib. (-TS)   =       0.00003444 Ry

     total magnetization       =     0.00 Bohr mag/cell
     absolute magnetization    =     0.00 Bohr mag/cell

     convergence has been achieved in   8 iterations

     Writing output data file pwo.save

     init_run     :      3.88s CPU      4.44s WALL (       1 calls)
     electrons    :    109.66s CPU    112.99s WALL (       1 calls)

     Called by init_run:
     wfcinit      :      3.18s CPU      3.47s WALL (       1 calls)
     wfcinit:atom :      0.03s CPU      0.03s WALL (    1000 calls)
     wfcinit:wfcr :      3.09s CPU      3.38s WALL (    1000 calls)
     potinit      :      0.37s CPU      0.47s WALL (       1 calls)

     Called by electrons:
     c_bands      :     99.00s CPU    101.20s WALL (       9 calls)
     sum_band     :      9.06s CPU      9.44s WALL (       9 calls)
     v_of_rho     :      0.09s CPU      0.11s WALL (       9 calls)
     v_h          :      0.00s CPU      0.00s WALL (       9 calls)
     v_xc         :      0.09s CPU      0.11s WALL (       9 calls)
     newd         :      0.11s CPU      0.11s WALL (       9 calls)
     PAW_pot      :      1.67s CPU      2.40s WALL (       9 calls)
     mix_rho      :      0.00s CPU      0.04s WALL (       9 calls)

     Called by c_bands:
     init_us_2    :      0.76s CPU      0.67s WALL (   19000 calls)
     cegterg      :     97.67s CPU     99.86s WALL (    9000 calls)

     Called by sum_band:
     sum_band:bec :      0.04s CPU      0.09s WALL (    9000 calls)
     addusdens    :      0.32s CPU      0.33s WALL (       9 calls)

     Called by *egterg:
     h_psi        :     38.02s CPU     39.48s WALL (   33506 calls)
     s_psi        :      0.49s CPU      0.47s WALL (   33506 calls)
     g_psi        :      0.05s CPU      0.12s WALL (   23506 calls)
     cdiaghg      :     52.33s CPU     53.13s WALL (   31506 calls)
     cegterg:over :      2.87s CPU      2.97s WALL (   23506 calls)
     cegterg:upda :      1.88s CPU      1.87s WALL (   23506 calls)
     cegterg:last :      1.19s CPU      1.17s WALL (    9000 calls)
     cdiaghg:chol :      2.80s CPU      2.88s WALL (   31506 calls)
     cdiaghg:inve :      1.95s CPU      2.04s WALL (   31506 calls)
     cdiaghg:para :      3.88s CPU      3.90s WALL (   63012 calls)

     Called by h_psi:
     h_psi:pot    :     37.93s CPU     39.37s WALL (   33506 calls)
     h_psi:calbec :      2.28s CPU      2.30s WALL (   33506 calls)
     vloc_psi     :     35.22s CPU     36.45s WALL (   33506 calls)
     add_vuspsi   :      0.39s CPU      0.52s WALL (   33506 calls)

     General routines
     calbec       :      3.10s CPU      3.07s WALL (   42506 calls)
     fft          :      0.18s CPU      0.30s WALL (     277 calls)
     ffts         :      0.00s CPU      0.00s WALL (      36 calls)
     fftw         :     39.39s CPU     39.70s WALL ( 1254472 calls)
     interpolate  :      0.01s CPU      0.01s WALL (      36 calls)
     davcio       :      0.00s CPU      0.01s WALL (    1000 calls)

     Parallel routines
     fft_scatter  :     24.62s CPU     23.43s WALL ( 1254785 calls)

     PAW routines
     PAW_pot      :      1.67s CPU      2.40s WALL (       9 calls)

     PWSCF        :  1m54.92s CPU     1m59.27s WALL


   This run was terminated on:  19: 0:39   4Dec2016            

=------------------------------------------------------------------------------=
   JOB DONE.
=------------------------------------------------------------------------------=
