
     Program PWSCF v.6.0 (svn rev. 13079) starts on 11Jan2017 at 22: 0: 1 

     This program is part of the open-source Quantum ESPRESSO suite
     for quantum simulation of materials; please cite
         "P. Giannozzi et al., J. Phys.:Condens. Matter 21 395502 (2009);
          URL http://www.quantum-espresso.org", 
     in publications or presentations arising from this work. More details at
     http://www.quantum-espresso.org/quote

     Parallel version (MPI), running on    24 processors
     R & G space division:  proc/nbgrp/npool/nimage =      24
     Waiting for input...
     Reading input from standard input
Warning: card &IONS ignored
Warning: card     ION_DYNAMICS='BFGS', ignored
Warning: card / ignored
Warning: card &CELL ignored
Warning: card     CELL_DYNAMICS = 'BFGS' ignored
Warning: card     PRESS = 0 ignored
Warning: card / ignored

     Current dimensions of program PWSCF are:
     Max number of different atomic species (ntypx) = 10
     Max number of k-points (npk) =  40000
     Max angular momentum in pseudopotentials (lmaxx) =  3
     Message from routine input:
     WARNING: "startingwfc" set to atomic+random may spoil restart

     Atomic positions and unit cell read from directory:
     ./pwo.save/

               file Ge.pbesol-dn-kjpaw_psl.0.2.2.UPF: wavefunction(s)  4P 3D renormalized
               file Te.pbesol-dn-kjpaw_psl.0.2.2.UPF: wavefunction(s)  5S 5P 4D renormalized

     Subspace diagonalization in iterative solution of the eigenvalue problem:
     one sub-group per band group will be used
     scalapack distributed-memory algorithm (size of sub-group:  3*  3 procs)


     Parallelization info
     --------------------
     sticks:   dense  smooth     PW     G-vecs:    dense   smooth      PW
     Min          46      20      6                 1004      297      57
     Max          47      21      7                 1007      301      62
     Sum        1109     499    163                24123     7181    1447



     bravais-lattice index     =            0
     lattice parameter (alat)  =       8.0899  a.u.
     unit-cell volume          =     360.3090 (a.u.)^3
     number of atoms/cell      =            2
     number of atomic types    =            2
     number of electrons       =        30.00
     number of Kohn-Sham states=           40
     kinetic-energy cutoff     =      28.0000  Ry
     charge density cutoff     =     250.0000  Ry
     Exchange-correlation      =  SLA  PW   PSX  PSC ( 1  4 10  8 0 0)

     celldm(1)=   8.089908  celldm(2)=   0.000000  celldm(3)=   0.000000
     celldm(4)=   0.000000  celldm(5)=   0.000000  celldm(6)=   0.000000

     crystal axes: (cart. coord. in units of alat)
               a(1) = (   0.562962   0.000000   0.826483 )  
               a(2) = (  -0.281481   0.487540   0.826483 )  
               a(3) = (  -0.281481  -0.487540   0.826483 )  

     reciprocal axes: (cart. coord. in units 2 pi/alat)
               b(1) = (  1.184212  0.000000  0.403316 )  
               b(2) = ( -0.592106  1.025558  0.403316 )  
               b(3) = ( -0.592106 -1.025558  0.403316 )  


     PseudoPot. # 1 for Ge read from file:
     ./Ge.pbesol-dn-kjpaw_psl.0.2.2.UPF
     MD5 check sum: 9c04f34039a3b392f64eba0a0ab43710
     Pseudo is Projector augmented-wave + core cor, Zval = 14.0
     Generated using "atomic" code by A. Dal Corso  v.5.0.2 svn rev. 9415
     Shape of augmentation charge: PSQ
     Using radial grid of 1207 points,  6 beta functions with: 
                l(1) =   0
                l(2) =   0
                l(3) =   1
                l(4) =   1
                l(5) =   2
                l(6) =   2
     Q(r) pseudized with 0 coefficients 


     PseudoPot. # 2 for Te read from file:
     ./Te.pbesol-dn-kjpaw_psl.0.2.2.UPF
     MD5 check sum: 3b4fa33727d9614a94103dec3e2d2e3a
     Pseudo is Projector augmented-wave + core cor, Zval = 16.0
     Generated using "atomic" code by A. Dal Corso  v.5.0.2 svn rev. 9415
     Shape of augmentation charge: PSQ
     Using radial grid of 1245 points,  6 beta functions with: 
                l(1) =   0
                l(2) =   0
                l(3) =   1
                l(4) =   1
                l(5) =   2
                l(6) =   2
     Q(r) pseudized with 0 coefficients 


     atomic species   valence    mass     pseudopotential
        Ge            14.00    50.00000     Ge( 1.00)
        Te            16.00    50.00000     Te( 1.00)

     Starting magnetic structure 
     atomic species   magnetization
        Ge          -0.001
        Te           0.000

     No symmetry found


                                    s                        frac. trans.

      isym =  1     identity                                     

 cryst.   s( 1) = (     1          0          0      )
                  (     0          1          0      )
                  (     0          0          1      )

 cart.    s( 1) = (  1.0000000  0.0000000  0.0000000 )
                  (  0.0000000  1.0000000  0.0000000 )
                  (  0.0000000  0.0000000  1.0000000 )


   Cartesian axes

     site n.     atom                  positions (alat units)
         1           Te  tau(   1) = (  -0.0000000   0.0000000   1.2973781  )
         2           Ge  tau(   2) = (   0.0000000   0.0000000  -0.0055858  )

   Crystallographic axes

     site n.     atom                  positions (cryst. coord.)
         1           Te  tau(   1) = (  0.5232529  0.5232529  0.5232529  )
         2           Ge  tau(   2) = ( -0.0022529 -0.0022529 -0.0022529  )

     number of k points=   201  Marzari-Vanderbilt smearing, width (Ry)=  0.0100
                       cart. coord. in units 2pi/alat
        k(    1) = (   0.0000000   1.0255575   0.6049734), wk =   0.0049751
        k(    2) = (  -0.0000000   1.0153020   0.6049734), wk =   0.0049751
        k(    3) = (  -0.0000000   1.0050464   0.6049734), wk =   0.0049751
        k(    4) = (  -0.0000000   0.9947908   0.6049734), wk =   0.0049751
        k(    5) = (   0.0000000   0.9845352   0.6049734), wk =   0.0049751
        k(    6) = (   0.0000000   0.9742797   0.6049734), wk =   0.0049751
        k(    7) = (   0.0000000   0.9640241   0.6049734), wk =   0.0049751
        k(    8) = (   0.0000000   0.9537685   0.6049734), wk =   0.0049751
        k(    9) = (   0.0000000   0.9435129   0.6049734), wk =   0.0049751
        k(   10) = (  -0.0000000   0.9332574   0.6049734), wk =   0.0049751
        k(   11) = (  -0.0000000   0.9230018   0.6049734), wk =   0.0049751
        k(   12) = (   0.0000000   0.9127462   0.6049734), wk =   0.0049751
        k(   13) = (   0.0000000   0.9024906   0.6049734), wk =   0.0049751
        k(   14) = (  -0.0000000   0.8922351   0.6049734), wk =   0.0049751
        k(   15) = (   0.0000000   0.8819795   0.6049734), wk =   0.0049751
        k(   16) = (   0.0000000   0.8717239   0.6049734), wk =   0.0049751
        k(   17) = (   0.0000000   0.8614683   0.6049734), wk =   0.0049751
        k(   18) = (  -0.0000000   0.8512128   0.6049734), wk =   0.0049751
        k(   19) = (  -0.0000000   0.8409572   0.6049734), wk =   0.0049751
        k(   20) = (  -0.0000000   0.8307016   0.6049734), wk =   0.0049751
        k(   21) = (  -0.0000000   0.8204460   0.6049734), wk =   0.0049751
        k(   22) = (   0.0000000   0.8101905   0.6049734), wk =   0.0049751
        k(   23) = (   0.0000000   0.7999349   0.6049734), wk =   0.0049751
        k(   24) = (   0.0000000   0.7896793   0.6049734), wk =   0.0049751
        k(   25) = (   0.0000000   0.7794237   0.6049734), wk =   0.0049751
        k(   26) = (  -0.0000000   0.7691682   0.6049734), wk =   0.0049751
        k(   27) = (  -0.0000000   0.7589126   0.6049734), wk =   0.0049751
        k(   28) = (  -0.0000000   0.7486570   0.6049734), wk =   0.0049751
        k(   29) = (   0.0000000   0.7384014   0.6049734), wk =   0.0049751
        k(   30) = (   0.0000000   0.7281459   0.6049734), wk =   0.0049751
        k(   31) = (   0.0000000   0.7178903   0.6049734), wk =   0.0049751
        k(   32) = (   0.0000000   0.7076347   0.6049734), wk =   0.0049751
        k(   33) = (   0.0000000   0.6973791   0.6049734), wk =   0.0049751
        k(   34) = (   0.0000000   0.6871236   0.6049734), wk =   0.0049751
        k(   35) = (   0.0000000   0.6768680   0.6049734), wk =   0.0049751
        k(   36) = (   0.0000000   0.6666124   0.6049734), wk =   0.0049751
        k(   37) = (  -0.0000000   0.6563568   0.6049734), wk =   0.0049751
        k(   38) = (   0.0000000   0.6461013   0.6049734), wk =   0.0049751
        k(   39) = (  -0.0000000   0.6358457   0.6049734), wk =   0.0049751
        k(   40) = (   0.0000000   0.6255901   0.6049734), wk =   0.0049751
        k(   41) = (   0.0000000   0.6153345   0.6049734), wk =   0.0049751
        k(   42) = (   0.0000000   0.6050789   0.6049734), wk =   0.0049751
        k(   43) = (  -0.0000000   0.5948234   0.6049734), wk =   0.0049751
        k(   44) = (  -0.0000000   0.5845678   0.6049734), wk =   0.0049751
        k(   45) = (   0.0000000   0.5743122   0.6049734), wk =   0.0049751
        k(   46) = (  -0.0000000   0.5640566   0.6049734), wk =   0.0049751
        k(   47) = (  -0.0000000   0.5538011   0.6049734), wk =   0.0049751
        k(   48) = (   0.0000000   0.5435455   0.6049734), wk =   0.0049751
        k(   49) = (   0.0000000   0.5332899   0.6049734), wk =   0.0049751
        k(   50) = (   0.0000000   0.5230343   0.6049734), wk =   0.0049751
        k(   51) = (  -0.0000000   0.5127788   0.6049734), wk =   0.0049751
        k(   52) = (   0.0000000   0.5025232   0.6049734), wk =   0.0049751
        k(   53) = (   0.0000000   0.4922676   0.6049734), wk =   0.0049751
        k(   54) = (  -0.0000000   0.4820120   0.6049734), wk =   0.0049751
        k(   55) = (   0.0000000   0.4717565   0.6049734), wk =   0.0049751
        k(   56) = (   0.0000000   0.4615009   0.6049734), wk =   0.0049751
        k(   57) = (  -0.0000000   0.4512453   0.6049734), wk =   0.0049751
        k(   58) = (   0.0000000   0.4409897   0.6049734), wk =   0.0049751
        k(   59) = (   0.0000000   0.4307342   0.6049734), wk =   0.0049751
        k(   60) = (  -0.0000000   0.4204786   0.6049734), wk =   0.0049751
        k(   61) = (   0.0000000   0.4102230   0.6049734), wk =   0.0049751
        k(   62) = (   0.0000000   0.3999674   0.6049734), wk =   0.0049751
        k(   63) = (   0.0000000   0.3897119   0.6049734), wk =   0.0049751
        k(   64) = (  -0.0000000   0.3794563   0.6049734), wk =   0.0049751
        k(   65) = (   0.0000000   0.3692007   0.6049734), wk =   0.0049751
        k(   66) = (  -0.0000000   0.3589451   0.6049734), wk =   0.0049751
        k(   67) = (   0.0000000   0.3486896   0.6049734), wk =   0.0049751
        k(   68) = (  -0.0000000   0.3384340   0.6049734), wk =   0.0049751
        k(   69) = (   0.0000000   0.3281784   0.6049734), wk =   0.0049751
        k(   70) = (  -0.0000000   0.3179228   0.6049734), wk =   0.0049751
        k(   71) = (   0.0000000   0.3076673   0.6049734), wk =   0.0049751
        k(   72) = (   0.0000000   0.2974117   0.6049734), wk =   0.0049751
        k(   73) = (   0.0000000   0.2871561   0.6049734), wk =   0.0049751
        k(   74) = (   0.0000000   0.2769005   0.6049734), wk =   0.0049751
        k(   75) = (  -0.0000000   0.2666450   0.6049734), wk =   0.0049751
        k(   76) = (   0.0000000   0.2563894   0.6049734), wk =   0.0049751
        k(   77) = (   0.0000000   0.2461338   0.6049734), wk =   0.0049751
        k(   78) = (  -0.0000000   0.2358782   0.6049734), wk =   0.0049751
        k(   79) = (   0.0000000   0.2256227   0.6049734), wk =   0.0049751
        k(   80) = (   0.0000000   0.2153671   0.6049734), wk =   0.0049751
        k(   81) = (   0.0000000   0.2051115   0.6049734), wk =   0.0049751
        k(   82) = (   0.0000000   0.1948559   0.6049734), wk =   0.0049751
        k(   83) = (   0.0000000   0.1846004   0.6049734), wk =   0.0049751
        k(   84) = (   0.0000000   0.1743448   0.6049734), wk =   0.0049751
        k(   85) = (  -0.0000000   0.1640892   0.6049734), wk =   0.0049751
        k(   86) = (   0.0000000   0.1538336   0.6049734), wk =   0.0049751
        k(   87) = (   0.0000000   0.1435781   0.6049734), wk =   0.0049751
        k(   88) = (   0.0000000   0.1333225   0.6049734), wk =   0.0049751
        k(   89) = (  -0.0000000   0.1230669   0.6049734), wk =   0.0049751
        k(   90) = (   0.0000000   0.1128113   0.6049734), wk =   0.0049751
        k(   91) = (  -0.0000000   0.1025558   0.6049734), wk =   0.0049751
        k(   92) = (   0.0000000   0.0923002   0.6049734), wk =   0.0049751
        k(   93) = (   0.0000000   0.0820446   0.6049734), wk =   0.0049751
        k(   94) = (   0.0000000   0.0717890   0.6049734), wk =   0.0049751
        k(   95) = (  -0.0000000   0.0615335   0.6049734), wk =   0.0049751
        k(   96) = (   0.0000000   0.0512779   0.6049734), wk =   0.0049751
        k(   97) = (   0.0000000   0.0410223   0.6049734), wk =   0.0049751
        k(   98) = (   0.0000000   0.0307667   0.6049734), wk =   0.0049751
        k(   99) = (   0.0000000   0.0205112   0.6049734), wk =   0.0049751
        k(  100) = (   0.0000000   0.0102556   0.6049734), wk =   0.0049751
        k(  101) = (   0.0000000   0.0000000   0.6049734), wk =   0.0049751
        k(  102) = (  -0.0044408   0.0076917   0.6049734), wk =   0.0049751
        k(  103) = (  -0.0088816   0.0153834   0.6049734), wk =   0.0049751
        k(  104) = (  -0.0133224   0.0230750   0.6049734), wk =   0.0049751
        k(  105) = (  -0.0177632   0.0307667   0.6049734), wk =   0.0049751
        k(  106) = (  -0.0222040   0.0384584   0.6049734), wk =   0.0049751
        k(  107) = (  -0.0266448   0.0461501   0.6049734), wk =   0.0049751
        k(  108) = (  -0.0310856   0.0538418   0.6049734), wk =   0.0049751
        k(  109) = (  -0.0355264   0.0615335   0.6049734), wk =   0.0049751
        k(  110) = (  -0.0399671   0.0692251   0.6049734), wk =   0.0049751
        k(  111) = (  -0.0444079   0.0769168   0.6049734), wk =   0.0049751
        k(  112) = (  -0.0488487   0.0846085   0.6049734), wk =   0.0049751
        k(  113) = (  -0.0532895   0.0923002   0.6049734), wk =   0.0049751
        k(  114) = (  -0.0577303   0.0999919   0.6049734), wk =   0.0049751
        k(  115) = (  -0.0621711   0.1076835   0.6049734), wk =   0.0049751
        k(  116) = (  -0.0666119   0.1153752   0.6049734), wk =   0.0049751
        k(  117) = (  -0.0710527   0.1230669   0.6049734), wk =   0.0049751
        k(  118) = (  -0.0754935   0.1307586   0.6049734), wk =   0.0049751
        k(  119) = (  -0.0799343   0.1384503   0.6049734), wk =   0.0049751
        k(  120) = (  -0.0843751   0.1461419   0.6049734), wk =   0.0049751
        k(  121) = (  -0.0888159   0.1538336   0.6049734), wk =   0.0049751
        k(  122) = (  -0.0932567   0.1615253   0.6049734), wk =   0.0049751
        k(  123) = (  -0.0976975   0.1692170   0.6049734), wk =   0.0049751
        k(  124) = (  -0.1021383   0.1769087   0.6049734), wk =   0.0049751
        k(  125) = (  -0.1065791   0.1846004   0.6049734), wk =   0.0049751
        k(  126) = (  -0.1110199   0.1922920   0.6049734), wk =   0.0049751
        k(  127) = (  -0.1154607   0.1999837   0.6049734), wk =   0.0049751
        k(  128) = (  -0.1199014   0.2076754   0.6049734), wk =   0.0049751
        k(  129) = (  -0.1243422   0.2153671   0.6049734), wk =   0.0049751
        k(  130) = (  -0.1287830   0.2230588   0.6049734), wk =   0.0049751
        k(  131) = (  -0.1332238   0.2307504   0.6049734), wk =   0.0049751
        k(  132) = (  -0.1376646   0.2384421   0.6049734), wk =   0.0049751
        k(  133) = (  -0.1421054   0.2461338   0.6049734), wk =   0.0049751
        k(  134) = (  -0.1465462   0.2538255   0.6049734), wk =   0.0049751
        k(  135) = (  -0.1509870   0.2615172   0.6049734), wk =   0.0049751
        k(  136) = (  -0.1554278   0.2692089   0.6049734), wk =   0.0049751
        k(  137) = (  -0.1598686   0.2769005   0.6049734), wk =   0.0049751
        k(  138) = (  -0.1643094   0.2845922   0.6049734), wk =   0.0049751
        k(  139) = (  -0.1687502   0.2922839   0.6049734), wk =   0.0049751
        k(  140) = (  -0.1731910   0.2999756   0.6049734), wk =   0.0049751
        k(  141) = (  -0.1776318   0.3076673   0.6049734), wk =   0.0049751
        k(  142) = (  -0.1820726   0.3153589   0.6049734), wk =   0.0049751
        k(  143) = (  -0.1865134   0.3230506   0.6049734), wk =   0.0049751
        k(  144) = (  -0.1909542   0.3307423   0.6049734), wk =   0.0049751
        k(  145) = (  -0.1953950   0.3384340   0.6049734), wk =   0.0049751
        k(  146) = (  -0.1998357   0.3461257   0.6049734), wk =   0.0049751
        k(  147) = (  -0.2042765   0.3538174   0.6049734), wk =   0.0049751
        k(  148) = (  -0.2087173   0.3615090   0.6049734), wk =   0.0049751
        k(  149) = (  -0.2131581   0.3692007   0.6049734), wk =   0.0049751
        k(  150) = (  -0.2175989   0.3768924   0.6049734), wk =   0.0049751
        k(  151) = (  -0.2220397   0.3845841   0.6049734), wk =   0.0049751
        k(  152) = (  -0.2264805   0.3922758   0.6049734), wk =   0.0049751
        k(  153) = (  -0.2309213   0.3999674   0.6049734), wk =   0.0049751
        k(  154) = (  -0.2353621   0.4076591   0.6049734), wk =   0.0049751
        k(  155) = (  -0.2398029   0.4153508   0.6049734), wk =   0.0049751
        k(  156) = (  -0.2442437   0.4230425   0.6049734), wk =   0.0049751
        k(  157) = (  -0.2486845   0.4307342   0.6049734), wk =   0.0049751
        k(  158) = (  -0.2531253   0.4384258   0.6049734), wk =   0.0049751
        k(  159) = (  -0.2575661   0.4461175   0.6049734), wk =   0.0049751
        k(  160) = (  -0.2620069   0.4538092   0.6049734), wk =   0.0049751
        k(  161) = (  -0.2664477   0.4615009   0.6049734), wk =   0.0049751
        k(  162) = (  -0.2708885   0.4691926   0.6049734), wk =   0.0049751
        k(  163) = (  -0.2753293   0.4768843   0.6049734), wk =   0.0049751
        k(  164) = (  -0.2797700   0.4845759   0.6049734), wk =   0.0049751
        k(  165) = (  -0.2842108   0.4922676   0.6049734), wk =   0.0049751
        k(  166) = (  -0.2886516   0.4999593   0.6049734), wk =   0.0049751
        k(  167) = (  -0.2930924   0.5076510   0.6049734), wk =   0.0049751
        k(  168) = (  -0.2975332   0.5153427   0.6049734), wk =   0.0049751
        k(  169) = (  -0.3019740   0.5230343   0.6049734), wk =   0.0049751
        k(  170) = (  -0.3064148   0.5307260   0.6049734), wk =   0.0049751
        k(  171) = (  -0.3108556   0.5384177   0.6049734), wk =   0.0049751
        k(  172) = (  -0.3152964   0.5461094   0.6049734), wk =   0.0049751
        k(  173) = (  -0.3197372   0.5538011   0.6049734), wk =   0.0049751
        k(  174) = (  -0.3241780   0.5614928   0.6049734), wk =   0.0049751
        k(  175) = (  -0.3286188   0.5691844   0.6049734), wk =   0.0049751
        k(  176) = (  -0.3330596   0.5768761   0.6049734), wk =   0.0049751
        k(  177) = (  -0.3375004   0.5845678   0.6049734), wk =   0.0049751
        k(  178) = (  -0.3419412   0.5922595   0.6049734), wk =   0.0049751
        k(  179) = (  -0.3463820   0.5999512   0.6049734), wk =   0.0049751
        k(  180) = (  -0.3508228   0.6076428   0.6049734), wk =   0.0049751
        k(  181) = (  -0.3552636   0.6153345   0.6049734), wk =   0.0049751
        k(  182) = (  -0.3597043   0.6230262   0.6049734), wk =   0.0049751
        k(  183) = (  -0.3641451   0.6307179   0.6049734), wk =   0.0049751
        k(  184) = (  -0.3685859   0.6384096   0.6049734), wk =   0.0049751
        k(  185) = (  -0.3730267   0.6461013   0.6049734), wk =   0.0049751
        k(  186) = (  -0.3774675   0.6537929   0.6049734), wk =   0.0049751
        k(  187) = (  -0.3819083   0.6614846   0.6049734), wk =   0.0049751
        k(  188) = (  -0.3863491   0.6691763   0.6049734), wk =   0.0049751
        k(  189) = (  -0.3907899   0.6768680   0.6049734), wk =   0.0049751
        k(  190) = (  -0.3952307   0.6845597   0.6049734), wk =   0.0049751
        k(  191) = (  -0.3996715   0.6922513   0.6049734), wk =   0.0049751
        k(  192) = (  -0.4041123   0.6999430   0.6049734), wk =   0.0049751
        k(  193) = (  -0.4085531   0.7076347   0.6049734), wk =   0.0049751
        k(  194) = (  -0.4129939   0.7153264   0.6049734), wk =   0.0049751
        k(  195) = (  -0.4174347   0.7230181   0.6049734), wk =   0.0049751
        k(  196) = (  -0.4218755   0.7307097   0.6049734), wk =   0.0049751
        k(  197) = (  -0.4263163   0.7384014   0.6049734), wk =   0.0049751
        k(  198) = (  -0.4307571   0.7460931   0.6049734), wk =   0.0049751
        k(  199) = (  -0.4351979   0.7537848   0.6049734), wk =   0.0049751
        k(  200) = (  -0.4396386   0.7614765   0.6049734), wk =   0.0049751
        k(  201) = (  -0.4440794   0.7691682   0.6049734), wk =   0.0049751

                       cryst. coord.
        k(    1) = (   0.5000000   1.0000000   0.0000000), wk =   0.0049751
        k(    2) = (   0.5000000   0.9950000   0.0050000), wk =   0.0049751
        k(    3) = (   0.5000000   0.9900000   0.0100000), wk =   0.0049751
        k(    4) = (   0.5000000   0.9850000   0.0150000), wk =   0.0049751
        k(    5) = (   0.5000000   0.9800000   0.0200000), wk =   0.0049751
        k(    6) = (   0.5000000   0.9750000   0.0250000), wk =   0.0049751
        k(    7) = (   0.5000000   0.9700000   0.0300000), wk =   0.0049751
        k(    8) = (   0.5000000   0.9650000   0.0350000), wk =   0.0049751
        k(    9) = (   0.5000000   0.9600000   0.0400000), wk =   0.0049751
        k(   10) = (   0.5000000   0.9550000   0.0450000), wk =   0.0049751
        k(   11) = (   0.5000000   0.9500000   0.0500000), wk =   0.0049751
        k(   12) = (   0.5000000   0.9450000   0.0550000), wk =   0.0049751
        k(   13) = (   0.5000000   0.9400000   0.0600000), wk =   0.0049751
        k(   14) = (   0.5000000   0.9350000   0.0650000), wk =   0.0049751
        k(   15) = (   0.5000000   0.9300000   0.0700000), wk =   0.0049751
        k(   16) = (   0.5000000   0.9250000   0.0750000), wk =   0.0049751
        k(   17) = (   0.5000000   0.9200000   0.0800000), wk =   0.0049751
        k(   18) = (   0.5000000   0.9150000   0.0850000), wk =   0.0049751
        k(   19) = (   0.5000000   0.9100000   0.0900000), wk =   0.0049751
        k(   20) = (   0.5000000   0.9050000   0.0950000), wk =   0.0049751
        k(   21) = (   0.5000000   0.9000000   0.1000000), wk =   0.0049751
        k(   22) = (   0.5000000   0.8950000   0.1050000), wk =   0.0049751
        k(   23) = (   0.5000000   0.8900000   0.1100000), wk =   0.0049751
        k(   24) = (   0.5000000   0.8850000   0.1150000), wk =   0.0049751
        k(   25) = (   0.5000000   0.8800000   0.1200000), wk =   0.0049751
        k(   26) = (   0.5000000   0.8750000   0.1250000), wk =   0.0049751
        k(   27) = (   0.5000000   0.8700000   0.1300000), wk =   0.0049751
        k(   28) = (   0.5000000   0.8650000   0.1350000), wk =   0.0049751
        k(   29) = (   0.5000000   0.8600000   0.1400000), wk =   0.0049751
        k(   30) = (   0.5000000   0.8550000   0.1450000), wk =   0.0049751
        k(   31) = (   0.5000000   0.8500000   0.1500000), wk =   0.0049751
        k(   32) = (   0.5000000   0.8450000   0.1550000), wk =   0.0049751
        k(   33) = (   0.5000000   0.8400000   0.1600000), wk =   0.0049751
        k(   34) = (   0.5000000   0.8350000   0.1650000), wk =   0.0049751
        k(   35) = (   0.5000000   0.8300000   0.1700000), wk =   0.0049751
        k(   36) = (   0.5000000   0.8250000   0.1750000), wk =   0.0049751
        k(   37) = (   0.5000000   0.8200000   0.1800000), wk =   0.0049751
        k(   38) = (   0.5000000   0.8150000   0.1850000), wk =   0.0049751
        k(   39) = (   0.5000000   0.8100000   0.1900000), wk =   0.0049751
        k(   40) = (   0.5000000   0.8050000   0.1950000), wk =   0.0049751
        k(   41) = (   0.5000000   0.8000000   0.2000000), wk =   0.0049751
        k(   42) = (   0.5000000   0.7950000   0.2050000), wk =   0.0049751
        k(   43) = (   0.5000000   0.7900000   0.2100000), wk =   0.0049751
        k(   44) = (   0.5000000   0.7850000   0.2150000), wk =   0.0049751
        k(   45) = (   0.5000000   0.7800000   0.2200000), wk =   0.0049751
        k(   46) = (   0.5000000   0.7750000   0.2250000), wk =   0.0049751
        k(   47) = (   0.5000000   0.7700000   0.2300000), wk =   0.0049751
        k(   48) = (   0.5000000   0.7650000   0.2350000), wk =   0.0049751
        k(   49) = (   0.5000000   0.7600000   0.2400000), wk =   0.0049751
        k(   50) = (   0.5000000   0.7550000   0.2450000), wk =   0.0049751
        k(   51) = (   0.5000000   0.7500000   0.2500000), wk =   0.0049751
        k(   52) = (   0.5000000   0.7450000   0.2550000), wk =   0.0049751
        k(   53) = (   0.5000000   0.7400000   0.2600000), wk =   0.0049751
        k(   54) = (   0.5000000   0.7350000   0.2650000), wk =   0.0049751
        k(   55) = (   0.5000000   0.7300000   0.2700000), wk =   0.0049751
        k(   56) = (   0.5000000   0.7250000   0.2750000), wk =   0.0049751
        k(   57) = (   0.5000000   0.7200000   0.2800000), wk =   0.0049751
        k(   58) = (   0.5000000   0.7150000   0.2850000), wk =   0.0049751
        k(   59) = (   0.5000000   0.7100000   0.2900000), wk =   0.0049751
        k(   60) = (   0.5000000   0.7050000   0.2950000), wk =   0.0049751
        k(   61) = (   0.5000000   0.7000000   0.3000000), wk =   0.0049751
        k(   62) = (   0.5000000   0.6950000   0.3050000), wk =   0.0049751
        k(   63) = (   0.5000000   0.6900000   0.3100000), wk =   0.0049751
        k(   64) = (   0.5000000   0.6850000   0.3150000), wk =   0.0049751
        k(   65) = (   0.5000000   0.6800000   0.3200000), wk =   0.0049751
        k(   66) = (   0.5000000   0.6750000   0.3250000), wk =   0.0049751
        k(   67) = (   0.5000000   0.6700000   0.3300000), wk =   0.0049751
        k(   68) = (   0.5000000   0.6650000   0.3350000), wk =   0.0049751
        k(   69) = (   0.5000000   0.6600000   0.3400000), wk =   0.0049751
        k(   70) = (   0.5000000   0.6550000   0.3450000), wk =   0.0049751
        k(   71) = (   0.5000000   0.6500000   0.3500000), wk =   0.0049751
        k(   72) = (   0.5000000   0.6450000   0.3550000), wk =   0.0049751
        k(   73) = (   0.5000000   0.6400000   0.3600000), wk =   0.0049751
        k(   74) = (   0.5000000   0.6350000   0.3650000), wk =   0.0049751
        k(   75) = (   0.5000000   0.6300000   0.3700000), wk =   0.0049751
        k(   76) = (   0.5000000   0.6250000   0.3750000), wk =   0.0049751
        k(   77) = (   0.5000000   0.6200000   0.3800000), wk =   0.0049751
        k(   78) = (   0.5000000   0.6150000   0.3850000), wk =   0.0049751
        k(   79) = (   0.5000000   0.6100000   0.3900000), wk =   0.0049751
        k(   80) = (   0.5000000   0.6050000   0.3950000), wk =   0.0049751
        k(   81) = (   0.5000000   0.6000000   0.4000000), wk =   0.0049751
        k(   82) = (   0.5000000   0.5950000   0.4050000), wk =   0.0049751
        k(   83) = (   0.5000000   0.5900000   0.4100000), wk =   0.0049751
        k(   84) = (   0.5000000   0.5850000   0.4150000), wk =   0.0049751
        k(   85) = (   0.5000000   0.5800000   0.4200000), wk =   0.0049751
        k(   86) = (   0.5000000   0.5750000   0.4250000), wk =   0.0049751
        k(   87) = (   0.5000000   0.5700000   0.4300000), wk =   0.0049751
        k(   88) = (   0.5000000   0.5650000   0.4350000), wk =   0.0049751
        k(   89) = (   0.5000000   0.5600000   0.4400000), wk =   0.0049751
        k(   90) = (   0.5000000   0.5550000   0.4450000), wk =   0.0049751
        k(   91) = (   0.5000000   0.5500000   0.4500000), wk =   0.0049751
        k(   92) = (   0.5000000   0.5450000   0.4550000), wk =   0.0049751
        k(   93) = (   0.5000000   0.5400000   0.4600000), wk =   0.0049751
        k(   94) = (   0.5000000   0.5350000   0.4650000), wk =   0.0049751
        k(   95) = (   0.5000000   0.5300000   0.4700000), wk =   0.0049751
        k(   96) = (   0.5000000   0.5250000   0.4750000), wk =   0.0049751
        k(   97) = (   0.5000000   0.5200000   0.4800000), wk =   0.0049751
        k(   98) = (   0.5000000   0.5150000   0.4850000), wk =   0.0049751
        k(   99) = (   0.5000000   0.5100000   0.4900000), wk =   0.0049751
        k(  100) = (   0.5000000   0.5050000   0.4950000), wk =   0.0049751
        k(  101) = (   0.5000000   0.5000000   0.5000000), wk =   0.0049751
        k(  102) = (   0.4975000   0.5050000   0.4975000), wk =   0.0049751
        k(  103) = (   0.4950000   0.5100000   0.4950000), wk =   0.0049751
        k(  104) = (   0.4925000   0.5150000   0.4925000), wk =   0.0049751
        k(  105) = (   0.4900000   0.5200000   0.4900000), wk =   0.0049751
        k(  106) = (   0.4875000   0.5250000   0.4875000), wk =   0.0049751
        k(  107) = (   0.4850000   0.5300000   0.4850000), wk =   0.0049751
        k(  108) = (   0.4825000   0.5350000   0.4825000), wk =   0.0049751
        k(  109) = (   0.4800000   0.5400000   0.4800000), wk =   0.0049751
        k(  110) = (   0.4775000   0.5450000   0.4775000), wk =   0.0049751
        k(  111) = (   0.4750000   0.5500000   0.4750000), wk =   0.0049751
        k(  112) = (   0.4725000   0.5550000   0.4725000), wk =   0.0049751
        k(  113) = (   0.4700000   0.5600000   0.4700000), wk =   0.0049751
        k(  114) = (   0.4675000   0.5650000   0.4675000), wk =   0.0049751
        k(  115) = (   0.4650000   0.5700000   0.4650000), wk =   0.0049751
        k(  116) = (   0.4625000   0.5750000   0.4625000), wk =   0.0049751
        k(  117) = (   0.4600000   0.5800000   0.4600000), wk =   0.0049751
        k(  118) = (   0.4575000   0.5850000   0.4575000), wk =   0.0049751
        k(  119) = (   0.4550000   0.5900000   0.4550000), wk =   0.0049751
        k(  120) = (   0.4525000   0.5950000   0.4525000), wk =   0.0049751
        k(  121) = (   0.4500000   0.6000000   0.4500000), wk =   0.0049751
        k(  122) = (   0.4475000   0.6050000   0.4475000), wk =   0.0049751
        k(  123) = (   0.4450000   0.6100000   0.4450000), wk =   0.0049751
        k(  124) = (   0.4425000   0.6150000   0.4425000), wk =   0.0049751
        k(  125) = (   0.4400000   0.6200000   0.4400000), wk =   0.0049751
        k(  126) = (   0.4375000   0.6250000   0.4375000), wk =   0.0049751
        k(  127) = (   0.4350000   0.6300000   0.4350000), wk =   0.0049751
        k(  128) = (   0.4325000   0.6350000   0.4325000), wk =   0.0049751
        k(  129) = (   0.4300000   0.6400000   0.4300000), wk =   0.0049751
        k(  130) = (   0.4275000   0.6450000   0.4275000), wk =   0.0049751
        k(  131) = (   0.4250000   0.6500000   0.4250000), wk =   0.0049751
        k(  132) = (   0.4225000   0.6550000   0.4225000), wk =   0.0049751
        k(  133) = (   0.4200000   0.6600000   0.4200000), wk =   0.0049751
        k(  134) = (   0.4175000   0.6650000   0.4175000), wk =   0.0049751
        k(  135) = (   0.4150000   0.6700000   0.4150000), wk =   0.0049751
        k(  136) = (   0.4125000   0.6750000   0.4125000), wk =   0.0049751
        k(  137) = (   0.4100000   0.6800000   0.4100000), wk =   0.0049751
        k(  138) = (   0.4075000   0.6850000   0.4075000), wk =   0.0049751
        k(  139) = (   0.4050000   0.6900000   0.4050000), wk =   0.0049751
        k(  140) = (   0.4025000   0.6950000   0.4025000), wk =   0.0049751
        k(  141) = (   0.4000000   0.7000000   0.4000000), wk =   0.0049751
        k(  142) = (   0.3975000   0.7050000   0.3975000), wk =   0.0049751
        k(  143) = (   0.3950000   0.7100000   0.3950000), wk =   0.0049751
        k(  144) = (   0.3925000   0.7150000   0.3925000), wk =   0.0049751
        k(  145) = (   0.3900000   0.7200000   0.3900000), wk =   0.0049751
        k(  146) = (   0.3875000   0.7250000   0.3875000), wk =   0.0049751
        k(  147) = (   0.3850000   0.7300000   0.3850000), wk =   0.0049751
        k(  148) = (   0.3825000   0.7350000   0.3825000), wk =   0.0049751
        k(  149) = (   0.3800000   0.7400000   0.3800000), wk =   0.0049751
        k(  150) = (   0.3775000   0.7450000   0.3775000), wk =   0.0049751
        k(  151) = (   0.3750000   0.7500000   0.3750000), wk =   0.0049751
        k(  152) = (   0.3725000   0.7550000   0.3725000), wk =   0.0049751
        k(  153) = (   0.3700000   0.7600000   0.3700000), wk =   0.0049751
        k(  154) = (   0.3675000   0.7650000   0.3675000), wk =   0.0049751
        k(  155) = (   0.3650000   0.7700000   0.3650000), wk =   0.0049751
        k(  156) = (   0.3625000   0.7750000   0.3625000), wk =   0.0049751
        k(  157) = (   0.3600000   0.7800000   0.3600000), wk =   0.0049751
        k(  158) = (   0.3575000   0.7850000   0.3575000), wk =   0.0049751
        k(  159) = (   0.3550000   0.7900000   0.3550000), wk =   0.0049751
        k(  160) = (   0.3525000   0.7950000   0.3525000), wk =   0.0049751
        k(  161) = (   0.3500000   0.8000000   0.3500000), wk =   0.0049751
        k(  162) = (   0.3475000   0.8050000   0.3475000), wk =   0.0049751
        k(  163) = (   0.3450000   0.8100000   0.3450000), wk =   0.0049751
        k(  164) = (   0.3425000   0.8150000   0.3425000), wk =   0.0049751
        k(  165) = (   0.3400000   0.8200000   0.3400000), wk =   0.0049751
        k(  166) = (   0.3375000   0.8250000   0.3375000), wk =   0.0049751
        k(  167) = (   0.3350000   0.8300000   0.3350000), wk =   0.0049751
        k(  168) = (   0.3325000   0.8350000   0.3325000), wk =   0.0049751
        k(  169) = (   0.3300000   0.8400000   0.3300000), wk =   0.0049751
        k(  170) = (   0.3275000   0.8450000   0.3275000), wk =   0.0049751
        k(  171) = (   0.3250000   0.8500000   0.3250000), wk =   0.0049751
        k(  172) = (   0.3225000   0.8550000   0.3225000), wk =   0.0049751
        k(  173) = (   0.3200000   0.8600000   0.3200000), wk =   0.0049751
        k(  174) = (   0.3175000   0.8650000   0.3175000), wk =   0.0049751
        k(  175) = (   0.3150000   0.8700000   0.3150000), wk =   0.0049751
        k(  176) = (   0.3125000   0.8750000   0.3125000), wk =   0.0049751
        k(  177) = (   0.3100000   0.8800000   0.3100000), wk =   0.0049751
        k(  178) = (   0.3075000   0.8850000   0.3075000), wk =   0.0049751
        k(  179) = (   0.3050000   0.8900000   0.3050000), wk =   0.0049751
        k(  180) = (   0.3025000   0.8950000   0.3025000), wk =   0.0049751
        k(  181) = (   0.3000000   0.9000000   0.3000000), wk =   0.0049751
        k(  182) = (   0.2975000   0.9050000   0.2975000), wk =   0.0049751
        k(  183) = (   0.2950000   0.9100000   0.2950000), wk =   0.0049751
        k(  184) = (   0.2925000   0.9150000   0.2925000), wk =   0.0049751
        k(  185) = (   0.2900000   0.9200000   0.2900000), wk =   0.0049751
        k(  186) = (   0.2875000   0.9250000   0.2875000), wk =   0.0049751
        k(  187) = (   0.2850000   0.9300000   0.2850000), wk =   0.0049751
        k(  188) = (   0.2825000   0.9350000   0.2825000), wk =   0.0049751
        k(  189) = (   0.2800000   0.9400000   0.2800000), wk =   0.0049751
        k(  190) = (   0.2775000   0.9450000   0.2775000), wk =   0.0049751
        k(  191) = (   0.2750000   0.9500000   0.2750000), wk =   0.0049751
        k(  192) = (   0.2725000   0.9550000   0.2725000), wk =   0.0049751
        k(  193) = (   0.2700000   0.9600000   0.2700000), wk =   0.0049751
        k(  194) = (   0.2675000   0.9650000   0.2675000), wk =   0.0049751
        k(  195) = (   0.2650000   0.9700000   0.2650000), wk =   0.0049751
        k(  196) = (   0.2625000   0.9750000   0.2625000), wk =   0.0049751
        k(  197) = (   0.2600000   0.9800000   0.2600000), wk =   0.0049751
        k(  198) = (   0.2575000   0.9850000   0.2575000), wk =   0.0049751
        k(  199) = (   0.2550000   0.9900000   0.2550000), wk =   0.0049751
        k(  200) = (   0.2525000   0.9950000   0.2525000), wk =   0.0049751
        k(  201) = (   0.2500000   1.0000000   0.2500000), wk =   0.0049751

     Dense  grid:    24123 G-vectors     FFT dimensions: (  45,  45,  45)

     Smooth grid:     7181 G-vectors     FFT dimensions: (  27,  27,  27)

     Estimated max dynamical RAM per process >       9.98Mb

     Estimated total allocated dynamical RAM >     239.48Mb
     Generating pointlists ...
     new r_m :   0.2734 (alat units)  2.2121 (a.u.) for type    1
     new r_m :   0.2734 (alat units)  2.2121 (a.u.) for type    2

     Check: negative/imaginary core charge=   -0.000027    0.000000

     The potential is recalculated from file :
     ./pwo.save/charge-density.dat

     Starting wfc are   18 randomized atomic wfcs +   22 random wfc
     Checking if some PAW data can be deallocated... 
       node    0, deallocated PAW data for type:  1
       node    1, deallocated PAW data for type:  1
       node    2, deallocated PAW data for type:  1
       node    3, deallocated PAW data for type:  1
       node    4, deallocated PAW data for type:  1
       node    5, deallocated PAW data for type:  1
       node    6, deallocated PAW data for type:  1
       node    7, deallocated PAW data for type:  1
       node    8, deallocated PAW data for type:  1
       node    9, deallocated PAW data for type:  1
       node   10, deallocated PAW data for type:  1
       node   11, deallocated PAW data for type:  1
       node   12, deallocated PAW data for type:  2
       node   13, deallocated PAW data for type:  2
       node   14, deallocated PAW data for type:  2
       node   15, deallocated PAW data for type:  2
       node   16, deallocated PAW data for type:  2
       node   17, deallocated PAW data for type:  2
       node   18, deallocated PAW data for type:  2
       node   19, deallocated PAW data for type:  2
       node   20, deallocated PAW data for type:  2
       node   21, deallocated PAW data for type:  2
       node   22, deallocated PAW data for type:  2
       node   23, deallocated PAW data for type:  2

     Band Structure Calculation
     Davidson diagonalization with overlap

     Computing kpt #:     1
     total cpu time spent up to now is        3.7 secs

     Computing kpt #:     2
     total cpu time spent up to now is        3.8 secs

     Computing kpt #:     3
     total cpu time spent up to now is        3.9 secs

     Computing kpt #:     4
     total cpu time spent up to now is        4.1 secs

     Computing kpt #:     5
     total cpu time spent up to now is        4.2 secs

     Computing kpt #:     6
     total cpu time spent up to now is        4.3 secs

     Computing kpt #:     7
     total cpu time spent up to now is        4.5 secs

     Computing kpt #:     8
     total cpu time spent up to now is        4.6 secs

     Computing kpt #:     9
     total cpu time spent up to now is        4.7 secs

     Computing kpt #:    10
     total cpu time spent up to now is        4.9 secs

     Computing kpt #:    11
     total cpu time spent up to now is        5.0 secs

     Computing kpt #:    12
     total cpu time spent up to now is        5.1 secs

     Computing kpt #:    13
     total cpu time spent up to now is        5.3 secs

     Computing kpt #:    14
     total cpu time spent up to now is        5.4 secs

     Computing kpt #:    15
     total cpu time spent up to now is        5.6 secs

     Computing kpt #:    16
     total cpu time spent up to now is        5.7 secs

     Computing kpt #:    17
     total cpu time spent up to now is        5.8 secs

     Computing kpt #:    18
     total cpu time spent up to now is        6.0 secs

     Computing kpt #:    19
     total cpu time spent up to now is        6.1 secs

     Computing kpt #:    20
     total cpu time spent up to now is        6.3 secs

     Computing kpt #:    21
     total cpu time spent up to now is        6.4 secs

     Computing kpt #:    22
     total cpu time spent up to now is        6.6 secs

     Computing kpt #:    23
     total cpu time spent up to now is        6.7 secs

     Computing kpt #:    24
     total cpu time spent up to now is        6.9 secs

     Computing kpt #:    25
     total cpu time spent up to now is        7.0 secs

     Computing kpt #:    26
     total cpu time spent up to now is        7.1 secs

     Computing kpt #:    27
     total cpu time spent up to now is        7.3 secs

     Computing kpt #:    28
     total cpu time spent up to now is        7.4 secs

     Computing kpt #:    29
     total cpu time spent up to now is        7.5 secs

     Computing kpt #:    30
     total cpu time spent up to now is        7.6 secs

     Computing kpt #:    31
     total cpu time spent up to now is        7.8 secs

     Computing kpt #:    32
     total cpu time spent up to now is        7.9 secs

     Computing kpt #:    33
     total cpu time spent up to now is        8.0 secs

     Computing kpt #:    34
     total cpu time spent up to now is        8.1 secs

     Computing kpt #:    35
     total cpu time spent up to now is        8.2 secs

     Computing kpt #:    36
     total cpu time spent up to now is        8.3 secs

     Computing kpt #:    37
     total cpu time spent up to now is        8.5 secs

     Computing kpt #:    38
     total cpu time spent up to now is        8.6 secs

     Computing kpt #:    39
     total cpu time spent up to now is        8.7 secs

     Computing kpt #:    40
     total cpu time spent up to now is        8.8 secs

     Computing kpt #:    41
     total cpu time spent up to now is        8.9 secs

     Computing kpt #:    42
     total cpu time spent up to now is        9.0 secs

     Computing kpt #:    43
     total cpu time spent up to now is        9.2 secs

     Computing kpt #:    44
     total cpu time spent up to now is        9.3 secs

     Computing kpt #:    45
     total cpu time spent up to now is        9.4 secs

     Computing kpt #:    46
     total cpu time spent up to now is        9.5 secs

     Computing kpt #:    47
     total cpu time spent up to now is        9.7 secs

     Computing kpt #:    48
     total cpu time spent up to now is        9.8 secs

     Computing kpt #:    49
     total cpu time spent up to now is        9.9 secs

     Computing kpt #:    50
     total cpu time spent up to now is       10.0 secs

     Computing kpt #:    51
     total cpu time spent up to now is       10.2 secs

     Computing kpt #:    52
     total cpu time spent up to now is       10.3 secs

     Computing kpt #:    53
     total cpu time spent up to now is       10.4 secs

     Computing kpt #:    54
     total cpu time spent up to now is       10.5 secs

     Computing kpt #:    55
     total cpu time spent up to now is       10.6 secs

     Computing kpt #:    56
     total cpu time spent up to now is       10.8 secs

     Computing kpt #:    57
     total cpu time spent up to now is       10.9 secs

     Computing kpt #:    58
     total cpu time spent up to now is       11.0 secs

     Computing kpt #:    59
     total cpu time spent up to now is       11.1 secs

     Computing kpt #:    60
     total cpu time spent up to now is       11.2 secs

     Computing kpt #:    61
     total cpu time spent up to now is       11.3 secs

     Computing kpt #:    62
     total cpu time spent up to now is       11.4 secs

     Computing kpt #:    63
     total cpu time spent up to now is       11.6 secs

     Computing kpt #:    64
     total cpu time spent up to now is       11.7 secs

     Computing kpt #:    65
     total cpu time spent up to now is       11.8 secs

     Computing kpt #:    66
     total cpu time spent up to now is       11.9 secs

     Computing kpt #:    67
     total cpu time spent up to now is       12.0 secs

     Computing kpt #:    68
     total cpu time spent up to now is       12.1 secs

     Computing kpt #:    69
     total cpu time spent up to now is       12.3 secs

     Computing kpt #:    70
     total cpu time spent up to now is       12.4 secs

     Computing kpt #:    71
     total cpu time spent up to now is       12.5 secs

     Computing kpt #:    72
     total cpu time spent up to now is       12.6 secs

     Computing kpt #:    73
     total cpu time spent up to now is       12.8 secs

     Computing kpt #:    74
     total cpu time spent up to now is       12.9 secs

     Computing kpt #:    75
     total cpu time spent up to now is       13.0 secs

     Computing kpt #:    76
     total cpu time spent up to now is       13.1 secs

     Computing kpt #:    77
     total cpu time spent up to now is       13.3 secs

     Computing kpt #:    78
     total cpu time spent up to now is       13.4 secs

     Computing kpt #:    79
     total cpu time spent up to now is       13.6 secs

     Computing kpt #:    80
     total cpu time spent up to now is       13.7 secs

     Computing kpt #:    81
     total cpu time spent up to now is       13.9 secs

     Computing kpt #:    82
     total cpu time spent up to now is       14.0 secs

     Computing kpt #:    83
     total cpu time spent up to now is       14.2 secs

     Computing kpt #:    84
     total cpu time spent up to now is       14.3 secs

     Computing kpt #:    85
     total cpu time spent up to now is       14.4 secs

     Computing kpt #:    86
     total cpu time spent up to now is       14.6 secs

     Computing kpt #:    87
     total cpu time spent up to now is       14.7 secs

     Computing kpt #:    88
     total cpu time spent up to now is       14.8 secs

     Computing kpt #:    89
     total cpu time spent up to now is       15.0 secs

     Computing kpt #:    90
     total cpu time spent up to now is       15.1 secs

     Computing kpt #:    91
     total cpu time spent up to now is       15.3 secs

     Computing kpt #:    92
     total cpu time spent up to now is       15.4 secs

     Computing kpt #:    93
     total cpu time spent up to now is       15.5 secs

     Computing kpt #:    94
     total cpu time spent up to now is       15.6 secs

     Computing kpt #:    95
     total cpu time spent up to now is       15.8 secs

     Computing kpt #:    96
     total cpu time spent up to now is       15.9 secs

     Computing kpt #:    97
     total cpu time spent up to now is       16.0 secs

     Computing kpt #:    98
     total cpu time spent up to now is       16.2 secs

     Computing kpt #:    99
     total cpu time spent up to now is       16.3 secs

     Computing kpt #:   100
     total cpu time spent up to now is       16.4 secs

     Computing kpt #:   101
     total cpu time spent up to now is       16.5 secs

     Computing kpt #:   102
     total cpu time spent up to now is       16.7 secs

     Computing kpt #:   103
     total cpu time spent up to now is       16.8 secs

     Computing kpt #:   104
     total cpu time spent up to now is       16.9 secs

     Computing kpt #:   105
     total cpu time spent up to now is       17.1 secs

     Computing kpt #:   106
     total cpu time spent up to now is       17.2 secs

     Computing kpt #:   107
     total cpu time spent up to now is       17.3 secs

     Computing kpt #:   108
     total cpu time spent up to now is       17.4 secs

     Computing kpt #:   109
     total cpu time spent up to now is       17.6 secs

     Computing kpt #:   110
     total cpu time spent up to now is       17.7 secs

     Computing kpt #:   111
     total cpu time spent up to now is       17.9 secs

     Computing kpt #:   112
     total cpu time spent up to now is       18.0 secs

     Computing kpt #:   113
     total cpu time spent up to now is       18.1 secs

     Computing kpt #:   114
     total cpu time spent up to now is       18.3 secs

     Computing kpt #:   115
     total cpu time spent up to now is       18.4 secs

     Computing kpt #:   116
     total cpu time spent up to now is       18.5 secs

     Computing kpt #:   117
     total cpu time spent up to now is       18.7 secs

     Computing kpt #:   118
     total cpu time spent up to now is       18.8 secs

     Computing kpt #:   119
     total cpu time spent up to now is       18.9 secs

     Computing kpt #:   120
     total cpu time spent up to now is       19.1 secs

     Computing kpt #:   121
     total cpu time spent up to now is       19.2 secs

     Computing kpt #:   122
     total cpu time spent up to now is       19.3 secs

     Computing kpt #:   123
     total cpu time spent up to now is       19.5 secs

     Computing kpt #:   124
     total cpu time spent up to now is       19.6 secs

     Computing kpt #:   125
     total cpu time spent up to now is       19.8 secs

     Computing kpt #:   126
     total cpu time spent up to now is       19.9 secs

     Computing kpt #:   127
     total cpu time spent up to now is       20.0 secs

     Computing kpt #:   128
     total cpu time spent up to now is       20.2 secs

     Computing kpt #:   129
     total cpu time spent up to now is       20.3 secs

     Computing kpt #:   130
     total cpu time spent up to now is       20.4 secs

     Computing kpt #:   131
     total cpu time spent up to now is       20.6 secs

     Computing kpt #:   132
     total cpu time spent up to now is       20.7 secs

     Computing kpt #:   133
     total cpu time spent up to now is       20.9 secs

     Computing kpt #:   134
     total cpu time spent up to now is       21.0 secs

     Computing kpt #:   135
     total cpu time spent up to now is       21.1 secs

     Computing kpt #:   136
     total cpu time spent up to now is       21.3 secs

     Computing kpt #:   137
     total cpu time spent up to now is       21.4 secs

     Computing kpt #:   138
     total cpu time spent up to now is       21.6 secs

     Computing kpt #:   139
     total cpu time spent up to now is       21.7 secs

     Computing kpt #:   140
     total cpu time spent up to now is       21.8 secs

     Computing kpt #:   141
     total cpu time spent up to now is       22.0 secs

     Computing kpt #:   142
     total cpu time spent up to now is       22.1 secs

     Computing kpt #:   143
     total cpu time spent up to now is       22.3 secs

     Computing kpt #:   144
     total cpu time spent up to now is       22.4 secs

     Computing kpt #:   145
     total cpu time spent up to now is       22.5 secs

     Computing kpt #:   146
     total cpu time spent up to now is       22.7 secs

     Computing kpt #:   147
     total cpu time spent up to now is       22.8 secs

     Computing kpt #:   148
     total cpu time spent up to now is       23.0 secs

     Computing kpt #:   149
     total cpu time spent up to now is       23.1 secs

     Computing kpt #:   150
     total cpu time spent up to now is       23.3 secs

     Computing kpt #:   151
     total cpu time spent up to now is       23.4 secs

     Computing kpt #:   152
     total cpu time spent up to now is       23.6 secs

     Computing kpt #:   153
     total cpu time spent up to now is       23.7 secs

     Computing kpt #:   154
     total cpu time spent up to now is       23.8 secs

     Computing kpt #:   155
     total cpu time spent up to now is       24.0 secs

     Computing kpt #:   156
     total cpu time spent up to now is       24.1 secs

     Computing kpt #:   157
     total cpu time spent up to now is       24.3 secs

     Computing kpt #:   158
     total cpu time spent up to now is       24.4 secs

     Computing kpt #:   159
     total cpu time spent up to now is       24.5 secs

     Computing kpt #:   160
     total cpu time spent up to now is       24.7 secs

     Computing kpt #:   161
     total cpu time spent up to now is       24.8 secs

     Computing kpt #:   162
     total cpu time spent up to now is       25.0 secs

     Computing kpt #:   163
     total cpu time spent up to now is       25.1 secs

     Computing kpt #:   164
     total cpu time spent up to now is       25.3 secs

     Computing kpt #:   165
     total cpu time spent up to now is       25.4 secs

     Computing kpt #:   166
     total cpu time spent up to now is       25.6 secs

     Computing kpt #:   167
     total cpu time spent up to now is       25.7 secs

     Computing kpt #:   168
     total cpu time spent up to now is       25.8 secs

     Computing kpt #:   169
     total cpu time spent up to now is       26.0 secs

     Computing kpt #:   170
     total cpu time spent up to now is       26.1 secs

     Computing kpt #:   171
     total cpu time spent up to now is       26.3 secs

     Computing kpt #:   172
     total cpu time spent up to now is       26.4 secs

     Computing kpt #:   173
     total cpu time spent up to now is       26.6 secs

     Computing kpt #:   174
     total cpu time spent up to now is       26.7 secs

     Computing kpt #:   175
     total cpu time spent up to now is       26.8 secs

     Computing kpt #:   176
     total cpu time spent up to now is       27.0 secs

     Computing kpt #:   177
     total cpu time spent up to now is       27.1 secs

     Computing kpt #:   178
     total cpu time spent up to now is       27.2 secs

     Computing kpt #:   179
     total cpu time spent up to now is       27.4 secs

     Computing kpt #:   180
     total cpu time spent up to now is       27.5 secs

     Computing kpt #:   181
     total cpu time spent up to now is       27.6 secs

     Computing kpt #:   182
     total cpu time spent up to now is       27.8 secs

     Computing kpt #:   183
     total cpu time spent up to now is       27.9 secs

     Computing kpt #:   184
     total cpu time spent up to now is       28.0 secs

     Computing kpt #:   185
     total cpu time spent up to now is       28.2 secs

     Computing kpt #:   186
     total cpu time spent up to now is       28.3 secs

     Computing kpt #:   187
     total cpu time spent up to now is       28.4 secs

     Computing kpt #:   188
     total cpu time spent up to now is       28.6 secs

     Computing kpt #:   189
     total cpu time spent up to now is       28.7 secs

     Computing kpt #:   190
     total cpu time spent up to now is       28.9 secs

     Computing kpt #:   191
     total cpu time spent up to now is       29.0 secs

     Computing kpt #:   192
     total cpu time spent up to now is       29.2 secs

     Computing kpt #:   193
     total cpu time spent up to now is       29.3 secs

     Computing kpt #:   194
     total cpu time spent up to now is       29.5 secs

     Computing kpt #:   195
     total cpu time spent up to now is       29.6 secs

     Computing kpt #:   196
     total cpu time spent up to now is       29.7 secs

     Computing kpt #:   197
     total cpu time spent up to now is       29.9 secs

     Computing kpt #:   198
     total cpu time spent up to now is       30.0 secs

     Computing kpt #:   199
     total cpu time spent up to now is       30.1 secs

     Computing kpt #:   200
     total cpu time spent up to now is       30.3 secs

     Computing kpt #:   201
     total cpu time spent up to now is       30.4 secs

     Computing kpt #:   202
     total cpu time spent up to now is       30.5 secs

     Computing kpt #:   203
     total cpu time spent up to now is       30.6 secs

     Computing kpt #:   204
     total cpu time spent up to now is       30.8 secs

     Computing kpt #:   205
     total cpu time spent up to now is       30.9 secs

     Computing kpt #:   206
     total cpu time spent up to now is       31.0 secs

     Computing kpt #:   207
     total cpu time spent up to now is       31.1 secs

     Computing kpt #:   208
     total cpu time spent up to now is       31.3 secs

     Computing kpt #:   209
     total cpu time spent up to now is       31.4 secs

     Computing kpt #:   210
     total cpu time spent up to now is       31.5 secs

     Computing kpt #:   211
     total cpu time spent up to now is       31.6 secs

     Computing kpt #:   212
     total cpu time spent up to now is       31.8 secs

     Computing kpt #:   213
     total cpu time spent up to now is       31.9 secs

     Computing kpt #:   214
     total cpu time spent up to now is       32.1 secs

     Computing kpt #:   215
     total cpu time spent up to now is       32.2 secs

     Computing kpt #:   216
     total cpu time spent up to now is       32.3 secs

     Computing kpt #:   217
     total cpu time spent up to now is       32.5 secs

     Computing kpt #:   218
     total cpu time spent up to now is       32.6 secs

     Computing kpt #:   219
     total cpu time spent up to now is       32.8 secs

     Computing kpt #:   220
     total cpu time spent up to now is       32.9 secs

     Computing kpt #:   221
     total cpu time spent up to now is       33.1 secs

     Computing kpt #:   222
     total cpu time spent up to now is       33.2 secs

     Computing kpt #:   223
     total cpu time spent up to now is       33.4 secs

     Computing kpt #:   224
     total cpu time spent up to now is       33.5 secs

     Computing kpt #:   225
     total cpu time spent up to now is       33.7 secs

     Computing kpt #:   226
     total cpu time spent up to now is       33.8 secs

     Computing kpt #:   227
     total cpu time spent up to now is       33.9 secs

     Computing kpt #:   228
     total cpu time spent up to now is       34.1 secs

     Computing kpt #:   229
     total cpu time spent up to now is       34.2 secs

     Computing kpt #:   230
     total cpu time spent up to now is       34.3 secs

     Computing kpt #:   231
     total cpu time spent up to now is       34.4 secs

     Computing kpt #:   232
     total cpu time spent up to now is       34.6 secs

     Computing kpt #:   233
     total cpu time spent up to now is       34.7 secs

     Computing kpt #:   234
     total cpu time spent up to now is       34.8 secs

     Computing kpt #:   235
     total cpu time spent up to now is       34.9 secs

     Computing kpt #:   236
     total cpu time spent up to now is       35.0 secs

     Computing kpt #:   237
     total cpu time spent up to now is       35.2 secs

     Computing kpt #:   238
     total cpu time spent up to now is       35.3 secs

     Computing kpt #:   239
     total cpu time spent up to now is       35.4 secs

     Computing kpt #:   240
     total cpu time spent up to now is       35.5 secs

     Computing kpt #:   241
     total cpu time spent up to now is       35.6 secs

     Computing kpt #:   242
     total cpu time spent up to now is       35.8 secs

     Computing kpt #:   243
     total cpu time spent up to now is       35.9 secs

     Computing kpt #:   244
     total cpu time spent up to now is       36.0 secs

     Computing kpt #:   245
     total cpu time spent up to now is       36.1 secs

     Computing kpt #:   246
     total cpu time spent up to now is       36.3 secs

     Computing kpt #:   247
     total cpu time spent up to now is       36.4 secs

     Computing kpt #:   248
     total cpu time spent up to now is       36.5 secs

     Computing kpt #:   249
     total cpu time spent up to now is       36.6 secs

     Computing kpt #:   250
     total cpu time spent up to now is       36.7 secs

     Computing kpt #:   251
     total cpu time spent up to now is       36.9 secs

     Computing kpt #:   252
     total cpu time spent up to now is       37.0 secs

     Computing kpt #:   253
     total cpu time spent up to now is       37.1 secs

     Computing kpt #:   254
     total cpu time spent up to now is       37.2 secs

     Computing kpt #:   255
     total cpu time spent up to now is       37.4 secs

     Computing kpt #:   256
     total cpu time spent up to now is       37.5 secs

     Computing kpt #:   257
     total cpu time spent up to now is       37.6 secs

     Computing kpt #:   258
     total cpu time spent up to now is       37.7 secs

     Computing kpt #:   259
     total cpu time spent up to now is       37.8 secs

     Computing kpt #:   260
     total cpu time spent up to now is       38.0 secs

     Computing kpt #:   261
     total cpu time spent up to now is       38.1 secs

     Computing kpt #:   262
     total cpu time spent up to now is       38.2 secs

     Computing kpt #:   263
     total cpu time spent up to now is       38.3 secs

     Computing kpt #:   264
     total cpu time spent up to now is       38.4 secs

     Computing kpt #:   265
     total cpu time spent up to now is       38.5 secs

     Computing kpt #:   266
     total cpu time spent up to now is       38.7 secs

     Computing kpt #:   267
     total cpu time spent up to now is       38.8 secs

     Computing kpt #:   268
     total cpu time spent up to now is       38.9 secs

     Computing kpt #:   269
     total cpu time spent up to now is       39.0 secs

     Computing kpt #:   270
     total cpu time spent up to now is       39.1 secs

     Computing kpt #:   271
     total cpu time spent up to now is       39.2 secs

     Computing kpt #:   272
     total cpu time spent up to now is       39.4 secs

     Computing kpt #:   273
     total cpu time spent up to now is       39.5 secs

     Computing kpt #:   274
     total cpu time spent up to now is       39.6 secs

     Computing kpt #:   275
     total cpu time spent up to now is       39.7 secs

     Computing kpt #:   276
     total cpu time spent up to now is       39.9 secs

     Computing kpt #:   277
     total cpu time spent up to now is       40.0 secs

     Computing kpt #:   278
     total cpu time spent up to now is       40.1 secs

     Computing kpt #:   279
     total cpu time spent up to now is       40.3 secs

     Computing kpt #:   280
     total cpu time spent up to now is       40.4 secs

     Computing kpt #:   281
     total cpu time spent up to now is       40.6 secs

     Computing kpt #:   282
     total cpu time spent up to now is       40.7 secs

     Computing kpt #:   283
     total cpu time spent up to now is       40.9 secs

     Computing kpt #:   284
     total cpu time spent up to now is       41.0 secs

     Computing kpt #:   285
     total cpu time spent up to now is       41.2 secs

     Computing kpt #:   286
     total cpu time spent up to now is       41.3 secs

     Computing kpt #:   287
     total cpu time spent up to now is       41.4 secs

     Computing kpt #:   288
     total cpu time spent up to now is       41.6 secs

     Computing kpt #:   289
     total cpu time spent up to now is       41.7 secs

     Computing kpt #:   290
     total cpu time spent up to now is       41.8 secs

     Computing kpt #:   291
     total cpu time spent up to now is       42.0 secs

     Computing kpt #:   292
     total cpu time spent up to now is       42.1 secs

     Computing kpt #:   293
     total cpu time spent up to now is       42.2 secs

     Computing kpt #:   294
     total cpu time spent up to now is       42.4 secs

     Computing kpt #:   295
     total cpu time spent up to now is       42.5 secs

     Computing kpt #:   296
     total cpu time spent up to now is       42.6 secs

     Computing kpt #:   297
     total cpu time spent up to now is       42.7 secs

     Computing kpt #:   298
     total cpu time spent up to now is       42.9 secs

     Computing kpt #:   299
     total cpu time spent up to now is       43.0 secs

     Computing kpt #:   300
     total cpu time spent up to now is       43.1 secs

     Computing kpt #:   301
     total cpu time spent up to now is       43.3 secs

     Computing kpt #:   302
     total cpu time spent up to now is       43.4 secs

     Computing kpt #:   303
     total cpu time spent up to now is       43.5 secs

     Computing kpt #:   304
     total cpu time spent up to now is       43.6 secs

     Computing kpt #:   305
     total cpu time spent up to now is       43.8 secs

     Computing kpt #:   306
     total cpu time spent up to now is       43.9 secs

     Computing kpt #:   307
     total cpu time spent up to now is       44.0 secs

     Computing kpt #:   308
     total cpu time spent up to now is       44.2 secs

     Computing kpt #:   309
     total cpu time spent up to now is       44.3 secs

     Computing kpt #:   310
     total cpu time spent up to now is       44.4 secs

     Computing kpt #:   311
     total cpu time spent up to now is       44.6 secs

     Computing kpt #:   312
     total cpu time spent up to now is       44.7 secs

     Computing kpt #:   313
     total cpu time spent up to now is       44.8 secs

     Computing kpt #:   314
     total cpu time spent up to now is       45.0 secs

     Computing kpt #:   315
     total cpu time spent up to now is       45.1 secs

     Computing kpt #:   316
     total cpu time spent up to now is       45.2 secs

     Computing kpt #:   317
     total cpu time spent up to now is       45.4 secs

     Computing kpt #:   318
     total cpu time spent up to now is       45.5 secs

     Computing kpt #:   319
     total cpu time spent up to now is       45.6 secs

     Computing kpt #:   320
     total cpu time spent up to now is       45.8 secs

     Computing kpt #:   321
     total cpu time spent up to now is       45.9 secs

     Computing kpt #:   322
     total cpu time spent up to now is       46.0 secs

     Computing kpt #:   323
     total cpu time spent up to now is       46.2 secs

     Computing kpt #:   324
     total cpu time spent up to now is       46.3 secs

     Computing kpt #:   325
     total cpu time spent up to now is       46.5 secs

     Computing kpt #:   326
     total cpu time spent up to now is       46.6 secs

     Computing kpt #:   327
     total cpu time spent up to now is       46.7 secs

     Computing kpt #:   328
     total cpu time spent up to now is       46.9 secs

     Computing kpt #:   329
     total cpu time spent up to now is       47.0 secs

     Computing kpt #:   330
     total cpu time spent up to now is       47.1 secs

     Computing kpt #:   331
     total cpu time spent up to now is       47.3 secs

     Computing kpt #:   332
     total cpu time spent up to now is       47.4 secs

     Computing kpt #:   333
     total cpu time spent up to now is       47.6 secs

     Computing kpt #:   334
     total cpu time spent up to now is       47.7 secs

     Computing kpt #:   335
     total cpu time spent up to now is       47.9 secs

     Computing kpt #:   336
     total cpu time spent up to now is       48.0 secs

     Computing kpt #:   337
     total cpu time spent up to now is       48.1 secs

     Computing kpt #:   338
     total cpu time spent up to now is       48.3 secs

     Computing kpt #:   339
     total cpu time spent up to now is       48.4 secs

     Computing kpt #:   340
     total cpu time spent up to now is       48.6 secs

     Computing kpt #:   341
     total cpu time spent up to now is       48.7 secs

     Computing kpt #:   342
     total cpu time spent up to now is       48.9 secs

     Computing kpt #:   343
     total cpu time spent up to now is       49.0 secs

     Computing kpt #:   344
     total cpu time spent up to now is       49.2 secs

     Computing kpt #:   345
     total cpu time spent up to now is       49.3 secs

     Computing kpt #:   346
     total cpu time spent up to now is       49.4 secs

     Computing kpt #:   347
     total cpu time spent up to now is       49.6 secs

     Computing kpt #:   348
     total cpu time spent up to now is       49.7 secs

     Computing kpt #:   349
     total cpu time spent up to now is       49.9 secs

     Computing kpt #:   350
     total cpu time spent up to now is       50.0 secs

     Computing kpt #:   351
     total cpu time spent up to now is       50.2 secs

     Computing kpt #:   352
     total cpu time spent up to now is       50.3 secs

     Computing kpt #:   353
     total cpu time spent up to now is       50.5 secs

     Computing kpt #:   354
     total cpu time spent up to now is       50.6 secs

     Computing kpt #:   355
     total cpu time spent up to now is       50.8 secs

     Computing kpt #:   356
     total cpu time spent up to now is       50.9 secs

     Computing kpt #:   357
     total cpu time spent up to now is       51.0 secs

     Computing kpt #:   358
     total cpu time spent up to now is       51.2 secs

     Computing kpt #:   359
     total cpu time spent up to now is       51.3 secs

     Computing kpt #:   360
     total cpu time spent up to now is       51.5 secs

     Computing kpt #:   361
     total cpu time spent up to now is       51.6 secs

     Computing kpt #:   362
     total cpu time spent up to now is       51.8 secs

     Computing kpt #:   363
     total cpu time spent up to now is       51.9 secs

     Computing kpt #:   364
     total cpu time spent up to now is       52.0 secs

     Computing kpt #:   365
     total cpu time spent up to now is       52.2 secs

     Computing kpt #:   366
     total cpu time spent up to now is       52.3 secs

     Computing kpt #:   367
     total cpu time spent up to now is       52.5 secs

     Computing kpt #:   368
     total cpu time spent up to now is       52.6 secs

     Computing kpt #:   369
     total cpu time spent up to now is       52.8 secs

     Computing kpt #:   370
     total cpu time spent up to now is       52.9 secs

     Computing kpt #:   371
     total cpu time spent up to now is       53.0 secs

     Computing kpt #:   372
     total cpu time spent up to now is       53.2 secs

     Computing kpt #:   373
     total cpu time spent up to now is       53.3 secs

     Computing kpt #:   374
     total cpu time spent up to now is       53.5 secs

     Computing kpt #:   375
     total cpu time spent up to now is       53.6 secs

     Computing kpt #:   376
     total cpu time spent up to now is       53.8 secs

     Computing kpt #:   377
     total cpu time spent up to now is       53.9 secs

     Computing kpt #:   378
     total cpu time spent up to now is       54.0 secs

     Computing kpt #:   379
     total cpu time spent up to now is       54.2 secs

     Computing kpt #:   380
     total cpu time spent up to now is       54.3 secs

     Computing kpt #:   381
     total cpu time spent up to now is       54.5 secs

     Computing kpt #:   382
     total cpu time spent up to now is       54.6 secs

     Computing kpt #:   383
     total cpu time spent up to now is       54.7 secs

     Computing kpt #:   384
     total cpu time spent up to now is       54.9 secs

     Computing kpt #:   385
     total cpu time spent up to now is       55.0 secs

     Computing kpt #:   386
     total cpu time spent up to now is       55.1 secs

     Computing kpt #:   387
     total cpu time spent up to now is       55.3 secs

     Computing kpt #:   388
     total cpu time spent up to now is       55.4 secs

     Computing kpt #:   389
     total cpu time spent up to now is       55.5 secs

     Computing kpt #:   390
     total cpu time spent up to now is       55.7 secs

     Computing kpt #:   391
     total cpu time spent up to now is       55.8 secs

     Computing kpt #:   392
     total cpu time spent up to now is       56.0 secs

     Computing kpt #:   393
     total cpu time spent up to now is       56.1 secs

     Computing kpt #:   394
     total cpu time spent up to now is       56.2 secs

     Computing kpt #:   395
     total cpu time spent up to now is       56.4 secs

     Computing kpt #:   396
     total cpu time spent up to now is       56.5 secs

     Computing kpt #:   397
     total cpu time spent up to now is       56.7 secs

     Computing kpt #:   398
     total cpu time spent up to now is       56.8 secs

     Computing kpt #:   399
     total cpu time spent up to now is       56.9 secs

     Computing kpt #:   400
     total cpu time spent up to now is       57.0 secs

     Computing kpt #:   401
     total cpu time spent up to now is       57.2 secs

     Computing kpt #:   402
     total cpu time spent up to now is       57.3 secs

     ethr =  3.33E-11,  avg # of iterations = 15.5

     total cpu time spent up to now is       57.3 secs

     End of band structure calculation

 ------ SPIN UP ------------


          k = 0.0000 1.0256 0.6050 (   890 PWs)   bands (ev):

   -27.6844 -27.6774 -27.6748 -27.6742 -27.6701 -15.7593 -15.7515 -15.7476
   -15.7419 -15.7380  -2.2523   0.1391   7.4931   7.5711   9.0641   9.6639
     9.8047  10.0327  18.0774  18.7160  19.4766  19.5811  19.7470  20.2430
    26.2571  26.3428  26.4166  26.5363  28.1494  28.4069  29.2546  29.4764
    33.6848  34.1233  34.8851  34.9302  35.2730  35.4226  35.6601  35.8856

          k =-0.0000 1.0153 0.6050 (   890 PWs)   bands (ev):

   -27.6844 -27.6774 -27.6748 -27.6742 -27.6701 -15.7593 -15.7515 -15.7476
   -15.7419 -15.7380  -2.2519   0.1397   7.4781   7.5747   9.0542   9.6618
     9.8026  10.0616  18.0731  18.7120  19.4423  19.5544  19.7952  20.2693
    26.2232  26.2497  26.5102  26.5610  28.1541  28.4130  29.2567  29.4777
    33.6741  34.0974  34.8473  34.9256  35.2645  35.3901  35.6994  35.9143

          k =-0.0000 1.0050 0.6050 (   896 PWs)   bands (ev):

   -27.6860 -27.6783 -27.6778 -27.6748 -27.6709 -15.7629 -15.7540 -15.7487
   -15.7447 -15.7442  -2.2506   0.1414   7.4391   7.5802   9.0232   9.6647
     9.8004  10.1357  18.0600  18.6994  19.3681  19.4994  19.8944  20.3400
    26.1001  26.1773  26.5830  26.6573  28.1680  28.4313  29.2630  29.4818
    33.6419  34.0263  34.7701  34.8603  35.2138  35.3948  35.7769  35.9564

          k =-0.0000 0.9948 0.6050 (   898 PWs)   bands (ev):

   -27.6862 -27.6792 -27.6782 -27.6757 -27.6710 -15.7634 -15.7553 -15.7510
   -15.7462 -15.7443  -2.2483   0.1443   7.3826   7.5829   8.9704   9.6869
     9.8018  10.2360  18.0376  18.6771  19.2860  19.4351  20.0110  20.4401
    25.9633  26.0968  26.6342  26.7801  28.1910  28.4615  29.2735  29.4887
    33.5880  33.9235  34.6707  34.7217  35.1343  35.4742  35.8491  35.9336

          k = 0.0000 0.9845 0.6050 (   898 PWs)   bands (ev):

   -27.6862 -27.6792 -27.6782 -27.6757 -27.6710 -15.7634 -15.7553 -15.7510
   -15.7462 -15.7443  -2.2453   0.1484   7.3123   7.5818   8.8988   9.7308
     9.8097  10.3513  18.0053  18.6428  19.2078  19.3724  20.1362  20.5578
    25.8250  26.0061  26.6829  26.9004  28.2228  28.5030  29.2884  29.4987
    33.5118  33.8006  34.5230  34.5781  35.0441  35.5906  35.7231  36.0082

          k = 0.0000 0.9743 0.6050 (   898 PWs)   bands (ev):

   -27.6862 -27.6791 -27.6782 -27.6757 -27.6710 -15.7633 -15.7552 -15.7510
   -15.7462 -15.7443  -2.2413   0.1537   7.2307   7.5768   8.8146   9.7760
     9.8418  10.4757  17.9626  18.5945  19.1389  19.3185  20.2668  20.6865
    25.6867  25.9085  26.7285  27.0145  28.2632  28.5549  29.3076  29.5121
    33.4120  33.6651  34.3284  34.4606  34.9439  35.4912  35.7385  36.1324

          k = 0.0000 0.9640 0.6050 (   898 PWs)   bands (ev):

   -27.6861 -27.6791 -27.6782 -27.6757 -27.6710 -15.7632 -15.7552 -15.7510
   -15.7463 -15.7443  -2.2365   0.1600   7.1404   7.5676   8.7237   9.7945
     9.9209  10.6061  17.9092  18.5307  19.0827  19.2768  20.4014  20.8222
    25.5490  25.8060  26.7707  27.1207  28.3122  28.6161  29.3311  29.5295
    33.2869  33.5213  34.1327  34.3426  34.8337  35.2448  35.8912  36.2676

          k = 0.0000 0.9538 0.6050 (   900 PWs)   bands (ev):

   -27.6870 -27.6794 -27.6784 -27.6758 -27.6718 -15.7645 -15.7551 -15.7510
   -15.7475 -15.7470  -2.2309   0.1676   7.0432   7.5536   8.6310   9.8041
    10.0251  10.7407  17.8456  18.4521  19.0411  19.2476  20.5388  20.9626
    25.4124  25.6999  26.8097  27.2177  28.3694  28.6851  29.3587  29.5515
    33.1346  33.3720  33.9479  34.2229  34.7111  34.9954  36.0536  36.4097

          k = 0.0000 0.9435 0.6050 (   898 PWs)   bands (ev):

   -27.6869 -27.6784 -27.6776 -27.6752 -27.6716 -15.7644 -15.7533 -15.7494
   -15.7469 -15.7453  -2.2244   0.1762   6.9411   7.5338   8.5402   9.8124
    10.1429  10.8783  17.7728  18.3609  19.0139  19.2299  20.6786  21.1062
    25.2775  25.5913  26.8461  27.3047  28.4340  28.7609  29.3899  29.5792
    32.9547  33.2199  33.7787  34.1019  34.5621  34.7667  36.2224  36.5570

          k =-0.0000 0.9333 0.6050 (   900 PWs)   bands (ev):

   -27.6869 -27.6799 -27.6776 -27.6756 -27.6718 -15.7644 -15.7563 -15.7506
   -15.7471 -15.7459  -2.2171   0.1859   6.8355   7.5069   8.4545   9.8210
    10.2703  11.0181  17.6918  18.2601  18.9999  19.2219  20.8201  21.2518
    25.1446  25.4810  26.8804  27.3815  28.5044  28.8426  29.4238  29.6137
    32.7502  33.0669  33.6243  33.9792  34.3628  34.5892  36.3959  36.7081

          k =-0.0000 0.9230 0.6050 (   900 PWs)   bands (ev):

   -27.6876 -27.6801 -27.6768 -27.6757 -27.6713 -15.7666 -15.7575 -15.7543
   -15.7447 -15.7408  -2.2091   0.1968   6.7275   7.4715   8.3765   9.8302
    10.4051  11.1596  17.6044  18.1527  18.9972  19.2219  20.9629  21.3986
    25.0143  25.3698  26.9130  27.4484  28.5782  28.9299  29.4597  29.6558
    32.5269  32.9137  33.4803  33.8531  34.1316  34.4518  36.5732  36.8625

          k = 0.0000 0.9127 0.6050 (   898 PWs)   bands (ev):

   -27.6862 -27.6792 -27.6768 -27.6757 -27.6713 -15.7632 -15.7553 -15.7542
   -15.7447 -15.7409  -2.2002   0.2087   6.6180   7.4262   8.3084   9.8402
    10.5458  11.3022  17.5118  18.0410  19.0044  19.2285  21.1064  21.5456
    24.8872  25.2583  26.9444  27.5062  28.6524  29.0224  29.4972  29.7056
    32.2913  32.7604  33.3402  33.7173  33.9063  34.3293  36.7536  37.0193

          k = 0.0000 0.9025 0.6050 (   898 PWs)   bands (ev):

   -27.6861 -27.6792 -27.6768 -27.6757 -27.6713 -15.7631 -15.7553 -15.7542
   -15.7447 -15.7409  -2.1907   0.2217   6.5078   7.3703   8.2514   9.8509
    10.6913  11.4456  17.4155  17.9268  19.0200  19.2407  21.2501  21.6919
    24.7641  25.1471  26.9750  27.5561  28.7243  29.1194  29.5369  29.7617
    32.0492  32.6066  33.1944  33.5589  33.7182  34.2128  36.9366  37.1783

          k =-0.0000 0.8922 0.6050 (   898 PWs)   bands (ev):

   -27.6860 -27.6792 -27.6768 -27.6756 -27.6713 -15.7629 -15.7553 -15.7542
   -15.7447 -15.7410  -2.1804   0.2357   6.3975   7.3038   8.2061   9.8624
    10.8406  11.5896  17.3165  17.8111  19.0429  19.2577  21.3937  21.8366
    24.6458  25.0370  27.0050  27.5993  28.7920  29.2187  29.5808  29.8213
    31.8054  32.4517  33.0308  33.3872  33.5736  34.1001  37.1219  37.3389

          k = 0.0000 0.8820 0.6050 (   896 PWs)   bands (ev):

   -27.6856 -27.6791 -27.6768 -27.6745 -27.6706 -15.7622 -15.7552 -15.7538
   -15.7429 -15.7382  -2.1694   0.2508   6.2876   7.2275   8.1718   9.8747
    10.9931  11.7338  17.2159  17.6950  19.0723  19.2790  21.5365  21.9781
    24.5337  24.9285  27.0347  27.6369  28.8547  29.3158  29.6324  29.8800
    31.5650  32.2947  32.8419  33.2353  33.4505  33.9906  37.3093  37.5009

          k = 0.0000 0.8717 0.6050 (   896 PWs)   bands (ev):

   -27.6855 -27.6790 -27.6767 -27.6745 -27.6705 -15.7620 -15.7551 -15.7538
   -15.7430 -15.7382  -2.1578   0.2668   6.1785   7.1430   8.1473   9.8877
    11.1483  11.8780  17.1144  17.5789  19.1075  19.3043  21.6778  22.1149
    24.4293  24.8225  27.0641  27.6697  28.9124  29.4035  29.6965  29.9314
    31.3342  32.1339  32.6354  33.1114  33.3369  33.8844  37.4984  37.6637

          k = 0.0000 0.8615 0.6050 (   900 PWs)   bands (ev):

   -27.6857 -27.6806 -27.6774 -27.6764 -27.6706 -15.7626 -15.7584 -15.7555
   -15.7431 -15.7428  -2.1456   0.2837   6.0706   7.0518   8.1312   9.9014
    11.3056  12.0220  17.0127  17.4635  19.1479  19.3333  21.8168  22.2445
    24.3348  24.7197  27.0933  27.6986  28.9657  29.4750  29.7757  29.9666
    31.1221  31.9670  32.4269  33.0088  33.2298  33.7819  37.6889  37.8266

          k =-0.0000 0.8512 0.6050 (   896 PWs)   bands (ev):

   -27.6830 -27.6797 -27.6773 -27.6755 -27.6702 -15.7571 -15.7555 -15.7549
   -15.7429 -15.7409  -2.1328   0.3016   5.9641   6.9556   8.1219   9.9158
[...]
   -15.7381 -15.7350  -1.9944   1.1832   4.1073   5.9727   6.3102  12.1779
    13.2317  14.1788  15.3929  18.8812  19.9571  21.0804  21.5849  23.1511
    23.3443  23.9822  25.3214  25.7851  26.6023  27.0212  28.1455  28.5446
    30.9808  32.9456  33.3183  33.6776  34.8562  35.1298  36.6921  38.8970

          k =-0.2798 0.4846 0.6050 (   895 PWs)   bands (ev):

   -27.6849 -27.6808 -27.6753 -27.6714 -27.6663 -15.7620 -15.7560 -15.7485
   -15.7381 -15.7350  -2.0114   1.2029   4.1479   5.9653   6.2884  12.1502
    13.2645  14.1785  15.3294  18.9740  20.0339  21.0077  21.5237  23.1148
    23.1950  24.0148  25.2717  25.7239  26.7411  27.1669  27.9516  28.6006
    31.0934  33.0791  33.4475  33.5435  34.9855  35.1094  36.6763  38.9536

          k =-0.2842 0.4923 0.6050 (   895 PWs)   bands (ev):

   -27.6850 -27.6807 -27.6754 -27.6715 -27.6663 -15.7621 -15.7559 -15.7485
   -15.7381 -15.7350  -2.0303   1.2240   4.1917   5.9590   6.2677  12.1229
    13.2960  14.1787  15.2622  19.0667  20.0976  20.9497  21.4495  23.0465
    23.0713  24.0666  25.2292  25.6638  26.8841  27.3177  27.7450  28.6704
    31.2103  33.2112  33.2485  33.7369  35.0897  35.1164  36.6521  39.0097

          k =-0.2887 0.5000 0.6050 (   893 PWs)   bands (ev):

   -27.6843 -27.6799 -27.6741 -27.6722 -27.6660 -15.7610 -15.7536 -15.7449
   -15.7402 -15.7345  -2.0510   1.2465   4.2384   5.9539   6.2483  12.0965
    13.3264  14.1792  15.1916  19.1584  20.1399  20.9151  21.3652  22.8988
    23.0218  24.1330  25.1961  25.6059  27.0294  27.4720  27.5362  28.7447
    31.3310  33.0358  33.3413  33.9445  35.0712  35.2472  36.6209  39.0648

          k =-0.2931 0.5077 0.6050 (   891 PWs)   bands (ev):

   -27.6842 -27.6799 -27.6740 -27.6717 -27.6646 -15.7605 -15.7531 -15.7446
   -15.7394 -15.7314  -2.0734   1.2704   4.2879   5.9498   6.2300  12.0708
    13.3557  14.1799  15.1178  19.2479  20.1522  20.9122  21.2733  22.7522
    22.9679  24.2085  25.1751  25.5510  27.1670  27.3375  27.6292  28.8209
    31.4552  32.8220  33.4685  34.1543  35.0550  35.3768  36.5845  39.1180

          k =-0.2975 0.5153 0.6050 (   891 PWs)   bands (ev):

   -27.6842 -27.6799 -27.6740 -27.6717 -27.6646 -15.7605 -15.7531 -15.7447
   -15.7395 -15.7314  -2.0976   1.2958   4.3402   5.9468   6.2129  12.0462
    13.3838  14.1807  15.0414  19.3339  20.1315  20.9442  21.1759  22.6066
    22.9119  24.2866  25.1691  25.4993  27.0961  27.3506  27.7888  28.8979
    31.5826  32.6085  33.5916  34.3656  35.0424  35.5036  36.5451  39.1683

          k =-0.3020 0.5230 0.6050 (   895 PWs)   bands (ev):

   -27.6848 -27.6807 -27.6749 -27.6726 -27.6662 -15.7621 -15.7547 -15.7465
   -15.7419 -15.7352  -2.1233   1.3226   4.3950   5.9449   6.1971  12.0226
    13.4108  14.1815  14.9625  19.4150  20.0823  21.0063  21.0751  22.4623
    22.8560  24.3607  25.1820  25.4511  26.8935  27.4993  27.9504  28.9751
    31.7132  32.3958  33.7091  34.5777  35.0348  35.6253  36.5057  39.2135

          k =-0.3064 0.5307 0.6050 (   893 PWs)   bands (ev):

   -27.6848 -27.6793 -27.6749 -27.6725 -27.6656 -15.7621 -15.7528 -15.7465
   -15.7402 -15.7336  -2.1505   1.3509   4.4522   5.9442   6.1827  12.0003
    13.4367  14.1823  14.8814  19.4895  20.0130  20.9727  21.0900  22.3197
    22.8023  24.4245  25.2174  25.4065  26.6878  27.6553  28.1139  29.0518
    31.8467  32.1850  33.8190  34.7904  35.0347  35.7378  36.4710  39.2510

          k =-0.3109 0.5384 0.6050 (   893 PWs)   bands (ev):

   -27.6848 -27.6794 -27.6750 -27.6725 -27.6656 -15.7621 -15.7528 -15.7465
   -15.7403 -15.7337  -2.1791   1.3805   4.5116   5.9445   6.1696  11.9793
    13.4616  14.1829  14.7986  19.5552  19.9306  20.8704  21.1877  22.1793
    22.7530  24.4737  25.2770  25.3655  26.4843  27.8142  28.2791  29.1276
    31.9699  31.9898  33.9186  35.0030  35.0445  35.8335  36.4493  39.2767

          k =-0.3153 0.5461 0.6050 (   895 PWs)   bands (ev):

   -27.6850 -27.6794 -27.6754 -27.6744 -27.6656 -15.7622 -15.7540 -15.7477
   -15.7433 -15.7339  -2.2090   1.4116   4.5731   5.9459   6.1579  11.9597
    13.4854  14.1831  14.7143  19.6099  19.8399  20.7699  21.2929  22.0429
    22.7101  24.5074  25.3282  25.3586  26.2851  27.9754  28.4458  29.2017
    31.7707  32.1233  34.0048  35.0674  35.2147  35.9003  36.4534  39.2861

          k =-0.3197 0.5538 0.6050 (   901 PWs)   bands (ev):

   -27.6874 -27.6803 -27.6763 -27.6753 -27.6677 -15.7680 -15.7547 -15.7493
   -15.7468 -15.7390  -2.2401   1.4439   4.6366   5.9483   6.1477  11.9416
    13.5081  14.1826  14.6290  19.6509  19.7439  20.6729  21.3981  21.9150
    22.6756  24.5275  25.2945  25.4550  26.0944  28.1384  28.6140  29.2730
    31.5701  32.2656  34.0750  35.1063  35.4243  35.9274  36.4951  39.2761

          k =-0.3242 0.5615 0.6050 (   901 PWs)   bands (ev):

   -27.6875 -27.6803 -27.6763 -27.6754 -27.6678 -15.7680 -15.7548 -15.7492
   -15.7469 -15.7391  -2.2723   1.4776   4.7018   5.9519   6.1392  11.9249
    13.5298  14.1808  14.5433  19.6447  19.6755  20.5813  21.4834  21.8139
    22.6516  24.5371  25.2645  25.5456  25.9290  28.3032  28.7836  29.3402
    31.3757  32.4107  34.1274  35.1630  35.6282  35.9187  36.5740  39.2463

          k =-0.3286 0.5692 0.6050 (   901 PWs)   bands (ev):

   -27.6875 -27.6803 -27.6762 -27.6755 -27.6679 -15.7680 -15.7548 -15.7492
   -15.7470 -15.7392  -2.3055   1.5124   4.7687   5.9565   6.1324  11.9099
    13.5504  14.1764  14.4588  19.5434  19.6812  20.4964  21.4882  21.7989
    22.6399  24.5388  25.2379  25.5508  25.8648  28.4696  28.9547  29.4009
    31.1902  32.5587  34.1618  35.2376  35.7944  35.9165  36.6794  39.1992

          k =-0.3331 0.5769 0.6050 (   901 PWs)   bands (ev):

   -27.6875 -27.6803 -27.6762 -27.6756 -27.6679 -15.7681 -15.7548 -15.7491
   -15.7471 -15.7393  -2.3396   1.5484   4.8370   5.9622   6.1274  11.8965
    13.5699  14.1663  14.3785  19.4409  19.6666  20.4189  21.3987  21.8830
    22.6417  24.5342  25.2149  25.4216  25.9486  28.6373  29.1270  29.4518
    31.0171  32.7094  34.1801  35.3286  35.7881  36.0644  36.8014  39.1383

          k =-0.3375 0.5846 0.6050 (   905 PWs)   bands (ev):

   -27.6876 -27.6825 -27.6779 -27.6757 -27.6686 -15.7681 -15.7581 -15.7535
   -15.7491 -15.7408  -2.3744   1.5854   4.9065   5.9690   6.1244  11.8848
    13.5884  14.1428  14.3102  19.3378  19.6318  20.3483  21.2771  22.0034
    22.6582  24.5230  25.1954  25.2544  26.0835  28.8062  29.3006  29.4878
    30.8620  32.8629  34.1848  35.4331  35.7234  36.2530  36.9349  39.0675

          k =-0.3419 0.5923 0.6050 (   903 PWs)   bands (ev):

   -27.6876 -27.6823 -27.6774 -27.6744 -27.6686 -15.7680 -15.7581 -15.7524
   -15.7453 -15.7405  -2.4100   1.6234   4.9770   5.9768   6.1235  11.8748
    13.6057  14.0944  14.2656  19.2347  19.5789  20.2826  21.1470  22.1362
    22.6896  24.5028  25.0867  25.1793  26.2338  28.9755  29.4756  29.5020
    30.7327  33.0190  34.1789  35.5486  35.6463  36.4373  37.0777  38.9903

          k =-0.3464 0.6000 0.6050 (   903 PWs)   bands (ev):

   -27.6872 -27.6837 -27.6757 -27.6749 -27.6691 -15.7664 -15.7602 -15.7491
   -15.7476 -15.7416  -2.4461   1.6622   5.0482   5.9856   6.1251  11.8666
    13.6219  14.0215  14.2441  19.1319  19.5110  20.2190  21.0144  22.2750
    22.7358  24.4665  24.9329  25.1667  26.3917  29.1435  29.4878  29.6517
    30.6380  33.1778  34.1648  35.5619  35.6724  36.6113  37.2291  38.9102

          k =-0.3508 0.6076 0.6050 (   901 PWs)   bands (ev):

   -27.6872 -27.6826 -27.6758 -27.6746 -27.6685 -15.7663 -15.7586 -15.7491
   -15.7457 -15.7403  -2.4827   1.7019   5.1198   5.9955   6.1293  11.8601
    13.6369  13.9358  14.2342  19.0298  19.4319  20.1550  20.8811  22.4179
    22.7962  24.4013  24.8087  25.1576  26.5538  29.2963  29.4525  29.8290
    30.5843  33.3391  34.1447  35.4724  35.8026  36.7717  37.3883  38.8304

          k =-0.3553 0.6153 0.6050 (   901 PWs)   bands (ev):

   -27.6872 -27.6827 -27.6758 -27.6747 -27.6686 -15.7664 -15.7587 -15.7492
   -15.7459 -15.7404  -2.5198   1.7423   5.1915   6.0064   6.1366  11.8555
    13.6507  13.8440  14.2292  18.9286  19.3448  20.0884  20.7479  22.5636
    22.8695  24.2957  24.7261  25.1519  26.7187  29.3076  29.5233  30.0075
    30.5715  33.5029  34.1201  35.3784  35.9376  36.9165  37.5532  38.7555

          k =-0.3597 0.6230 0.6050 (   903 PWs)   bands (ev):

   -27.6877 -27.6830 -27.6774 -27.6748 -27.6690 -15.7667 -15.7591 -15.7533
   -15.7461 -15.7412  -2.5571   1.7833   5.2628   6.0184   6.1473  11.8526
    13.6632  13.7489  14.2262  18.8285  19.2523  20.0183  20.6154  22.7114
    22.9545  24.1563  24.6794  25.1498  26.8855  29.1992  29.6853  30.1871
    30.5929  33.6689  34.0922  35.2806  36.0762  37.0444  37.7191  38.6913

          k =-0.3641 0.6307 0.6050 (   897 PWs)   bands (ev):

   -27.6858 -27.6806 -27.6774 -27.6742 -27.6675 -15.7626 -15.7550 -15.7531
   -15.7429 -15.7375  -2.5947   1.8248   5.3332   6.0313   6.1619  11.8516
    13.6518  13.6743  14.2241  18.7299  19.1565  19.9441  20.4836  22.8610
    23.0496  23.9986  24.6532  25.1514  27.0532  29.0625  29.8560  30.3679
    30.6403  33.8368  34.0618  35.1797  36.2178  37.1543  37.8776  38.6479

          k =-0.3686 0.6384 0.6050 (   901 PWs)   bands (ev):

   -27.6860 -27.6808 -27.6779 -27.6745 -27.6715 -15.7634 -15.7557 -15.7543
   -15.7461 -15.7433  -2.6324   1.8668   5.4020   6.0453   6.1811  11.8524
    13.5532  13.6840  14.2222  18.6329  19.0586  19.8660  20.3529  23.0118
    23.1532  23.8331  24.6372  25.1568  27.2210  28.9127  30.0272  30.5497
    30.7071  34.0057  34.0297  35.0764  36.3613  37.2447  38.0133  38.6416

          k =-0.3730 0.6461 0.6050 (   898 PWs)   bands (ev):

   -27.6848 -27.6809 -27.6766 -27.6744 -27.6709 -15.7603 -15.7557 -15.7520
   -15.7442 -15.7433  -2.6703   1.9091   5.4687   6.0603   6.2054  11.8550
    13.4535  13.6922  14.2204  18.5376  18.9598  19.7845  20.2232  23.1633
    23.2632  23.6654  24.6265  25.1663  27.3879  28.7575  30.1968  30.7325
    30.7894  33.9963  34.1740  34.9728  36.5063  37.3133  38.1087  38.6925

          k =-0.3775 0.6538 0.6050 (   900 PWs)   bands (ev):

   -27.6849 -27.6820 -27.6779 -27.6747 -27.6711 -15.7604 -15.7584 -15.7548
   -15.7445 -15.7435  -2.7081   1.9517   5.5324   6.0762   6.2356  11.8595
    13.3527  13.6989  14.2182  18.4444  18.8607  19.7001  20.0948  23.3152
    23.3714  23.5049  24.6184  25.1801  27.5518  28.6029  30.3624  30.8855
    30.9163  33.9620  34.3362  34.8743  36.6523  37.3574  38.1625  38.8037

          k =-0.3819 0.6615 0.6050 (   900 PWs)   bands (ev):

   -27.6850 -27.6821 -27.6779 -27.6748 -27.6712 -15.7605 -15.7585 -15.7548
   -15.7448 -15.7437  -2.7459   1.9945   5.5925   6.0931   6.2723  11.8657
    13.2511  13.7039  14.2158  18.3534  18.7620  19.6133  19.9677  23.3136
    23.4668  23.5155  24.6113  25.1987  27.7083  28.4564  30.5215  30.9955
    31.1010  33.9273  34.4692  34.8041  36.7989  37.3754  38.1959  38.9552

          k =-0.3863 0.6692 0.6050 (   900 PWs)   bands (ev):

   -27.6851 -27.6822 -27.6780 -27.6749 -27.6714 -15.7605 -15.7586 -15.7548
   -15.7450 -15.7439  -2.7835   2.0373   5.6484   6.1110   6.3162  11.8738
    13.1487  13.7071  14.2128  18.2647  18.6638  19.5249  19.8419  23.1507
    23.6174  23.6359  24.6045  25.2226  27.8426  28.3347  30.6717  31.1204
    31.2865  33.8924  34.4966  34.8386  36.9456  37.3684  38.2278  39.1258

          k =-0.3908 0.6769 0.6050 (   900 PWs)   bands (ev):

   -27.6851 -27.6823 -27.6780 -27.6749 -27.6715 -15.7606 -15.7587 -15.7548
   -15.7453 -15.7441  -2.8210   2.0802   5.6999   6.1299   6.3673  11.8836
    13.0456  13.7085  14.2093  18.1785  18.5666  19.4355  19.7176  22.9858
    23.7619  23.7662  24.5972  25.2526  27.9053  28.2893  30.8111  31.2607
    31.4727  33.8577  34.4174  34.9787  37.0921  37.3405  38.2655  39.3030

          k =-0.3952 0.6846 0.6050 (   898 PWs)   bands (ev):

   -27.6848 -27.6818 -27.6772 -27.6750 -27.6710 -15.7602 -15.7577 -15.7534
   -15.7439 -15.7432  -2.8582   2.1229   5.7470   6.1496   6.4258  11.8952
    12.9419  13.7079  14.2051  18.0949  18.4704  19.3457  19.5948  22.8223
    23.8886  23.9122  24.5892  25.2896  27.8517  28.3665  30.9401  31.4155
    31.6595  33.8234  34.3049  35.1517  37.2377  37.2970  38.3090  39.4794

          k =-0.3997 0.6923 0.6050 (   898 PWs)   bands (ev):

   -27.6849 -27.6819 -27.6772 -27.6750 -27.6711 -15.7602 -15.7578 -15.7535
   -15.7441 -15.7434  -2.8952   2.1655   5.7899   6.1703   6.4913  11.9084
    12.8376  13.7053  14.2002  18.0141  18.3754  19.2559  19.4737  22.6609
    24.0130  24.0539  24.5810  25.3347  27.7444  28.5056  31.0601  31.5825
    31.8466  33.7898  34.1808  35.3355  37.2433  37.3818  38.3561  39.6495

          k =-0.4041 0.6999 0.6050 (   900 PWs)   bands (ev):

   -27.6853 -27.6820 -27.6776 -27.6752 -27.6727 -15.7624 -15.7580 -15.7539
   -15.7461 -15.7445  -2.9318   2.2079   5.8294   6.1919   6.5631  11.9233
    12.7329  13.7005  14.1946  17.9363  18.2816  19.1669  19.3542  22.5019
    24.1307  24.1899  24.5747  25.3895  27.6285  28.6633  31.1735  31.7587
    32.0338  33.7574  34.0507  35.5250  37.1834  37.5234  38.4042  39.6542

          k =-0.4086 0.7076 0.6050 (   899 PWs)   bands (ev):

   -27.6847 -27.6820 -27.6775 -27.6753 -27.6723 -15.7616 -15.7580 -15.7534
   -15.7448 -15.7446  -2.9680   2.2499   5.8661   6.2144   6.6405  11.9398
    12.6277  13.6935  14.1881  17.8614  18.1890  19.0790  19.2367  22.3454
    24.2327  24.3186  24.5769  25.4554  27.5183  28.8275  31.2823  31.9418
    32.2205  33.7267  33.9167  35.7182  37.1202  37.6615  38.4514  39.5693

          k =-0.4130 0.7153 0.6050 (   899 PWs)   bands (ev):

   -27.6847 -27.6821 -27.6775 -27.6753 -27.6725 -15.7616 -15.7581 -15.7534
   -15.7450 -15.7447  -3.0037   2.2915   5.9006   6.2377   6.7229  11.9579
    12.5221  13.6841  14.1809  17.7895  18.0975  18.9929  19.1210  22.1916
    24.3013  24.4383  24.6029  25.5341  27.4197  28.9944  31.3878  32.1297
    32.4060  33.6986  33.7800  35.9144  37.0558  37.7943  38.4961  39.4897

          k =-0.4174 0.7230 0.6050 (   899 PWs)   bands (ev):

   -27.6848 -27.6821 -27.6775 -27.6753 -27.6726 -15.7616 -15.7581 -15.7533
   -15.7452 -15.7447  -3.0390   2.3326   5.9337   6.2619   6.8094  11.9774
    12.4161  13.6722  14.1728  17.7208  18.0071  18.9090  19.0075  22.0405
    24.3208  24.5478  24.6658  25.6266  27.3365  29.1626  31.4909  32.3205
    32.5889  33.6419  33.6744  36.1130  36.9916  37.9195  38.5373  39.4174

          k =-0.4219 0.7307 0.6050 (   899 PWs)   bands (ev):

   -27.6847 -27.6821 -27.6774 -27.6753 -27.6727 -15.7615 -15.7582 -15.7532
   -15.7453 -15.7448  -3.0738   2.3732   5.9660   6.2870   6.8995  11.9982
    12.3099  13.6578  14.1639  17.6552  17.9175  18.8277  18.8963  21.8922
    24.2998  24.6465  24.7547  25.7334  27.2716  29.3312  31.5921  32.5121
    32.7667  33.5043  33.6568  36.3136  36.9287  38.0335  38.5742  39.3559

          k =-0.4263 0.7384 0.6050 (   899 PWs)   bands (ev):

   -27.6847 -27.6821 -27.6774 -27.6754 -27.6728 -15.7615 -15.7582 -15.7531
   -15.7455 -15.7448  -3.1080   2.4132   5.9979   6.3128   6.9927  12.0203
    12.2036  13.6408  14.1542  17.5927  17.8286  18.7496  18.7875  21.7469
    24.2531  24.7348  24.8524  25.8543  27.2275  29.4999  31.6912  32.7000
    32.9343  33.3718  33.6508  36.5155  36.8682  38.1314  38.6064  39.3097

          k =-0.4308 0.7461 0.6050 (   899 PWs)   bands (ev):

   -27.6848 -27.6832 -27.6775 -27.6738 -27.6731 -15.7614 -15.7591 -15.7532
   -15.7466 -15.7429  -3.1417   2.4526   6.0298   6.3395   7.0884  12.0433
    12.0973  13.6212  14.1438  17.5332  17.7403  18.6750  18.6815  21.6045
    24.1885  24.8136  24.9497  25.9881  27.2059  29.6685  31.7879  32.8674
    33.0815  33.2617  33.6666  36.7138  36.8151  38.2070  38.6336  39.2843

          k =-0.4352 0.7538 0.6050 (   903 PWs)   bands (ev):

   -27.6861 -27.6841 -27.6782 -27.6747 -27.6742 -15.7627 -15.7605 -15.7549
   -15.7518 -15.7443  -3.1747   2.4912   6.0620   6.3669   7.1863  11.9902
    12.0681  13.5988  14.1327  17.4764  17.6523  18.5784  18.6044  21.4652
    24.1089  24.8843  25.0422  26.1332  27.2079  29.8368  31.8811  32.9348
    33.1920  33.2547  33.7206  36.7458  36.9317  38.2543  38.6555  39.2849

          k =-0.4396 0.7615 0.6050 (   903 PWs)   bands (ev):

   -27.6859 -27.6841 -27.6779 -27.6748 -27.6748 -15.7620 -15.7605 -15.7543
   -15.7521 -15.7456  -3.2070   2.5290   6.0949   6.3951   7.2861  11.8838
    12.0930  13.5737  14.1211  17.4223  17.5646  18.4787  18.5382  21.3289
    24.0161  24.9487  25.1283  26.2881  27.2336  30.0047  31.9686  32.8579
    33.2542  33.3974  33.8241  36.6945  37.1351  38.2703  38.6722  39.3132

          k =-0.4441 0.7692 0.6050 (   907 PWs)   bands (ev):

   -27.6870 -27.6861 -27.6780 -27.6758 -27.6756 -15.7655 -15.7633 -15.7545
   -15.7535 -15.7490  -3.2387   2.5661   6.1285   6.4240   7.3873  11.7775
    12.1188  13.5458  14.1090  17.3704  17.4769  18.3827  18.4766  21.1957
    23.9113  25.0081  25.2072  26.4511  27.2823  30.1721  32.0449  32.7454
    33.2769  33.5866  33.9685  36.6442  37.3403  38.2571  38.6838  39.3647

     Writing output data file pwo.save

     init_run     :      0.37s CPU      0.51s WALL (       1 calls)
     electrons    :     53.27s CPU     54.50s WALL (       1 calls)

     Called by init_run:
     wfcinit      :      0.00s CPU      0.00s WALL (       1 calls)
     wfcinit:atom :      0.01s CPU      0.01s WALL (     402 calls)
     wfcinit:wfcr :      2.08s CPU      2.15s WALL (     402 calls)
     potinit      :      0.17s CPU      0.22s WALL (       1 calls)

     Called by electrons:
     c_bands      :     53.26s CPU     54.47s WALL (       1 calls)
     v_of_rho     :      0.01s CPU      0.01s WALL (       1 calls)
     v_h          :      0.00s CPU      0.00s WALL (       1 calls)
     v_xc         :      0.01s CPU      0.01s WALL (       1 calls)
     newd         :      0.01s CPU      0.01s WALL (       1 calls)
     PAW_pot      :      0.15s CPU      0.17s WALL (       1 calls)

     Called by c_bands:
     init_us_2    :      0.02s CPU      0.02s WALL (     402 calls)
     cegterg      :     51.05s CPU     51.66s WALL (     404 calls)

     Called by sum_band:

     Called by *egterg:
     h_psi        :     12.65s CPU     13.15s WALL (    7024 calls)
     s_psi        :      0.16s CPU      0.14s WALL (    7024 calls)
     g_psi        :      0.04s CPU      0.06s WALL (    6218 calls)
     cdiaghg      :     35.14s CPU     35.22s WALL (    6620 calls)
     cegterg:over :      2.24s CPU      2.30s WALL (    6218 calls)
     cegterg:upda :      1.06s CPU      1.05s WALL (    6218 calls)
     cegterg:last :      0.77s CPU      0.77s WALL (    1315 calls)
     cdiaghg:chol :      1.43s CPU      1.43s WALL (    6620 calls)
     cdiaghg:inve :      1.42s CPU      1.43s WALL (    6620 calls)
     cdiaghg:para :      2.90s CPU      2.90s WALL (   13240 calls)

     Called by h_psi:
     h_psi:pot    :     12.64s CPU     13.12s WALL (    7024 calls)
     h_psi:calbec :      0.63s CPU      0.65s WALL (    7024 calls)
     vloc_psi     :     11.86s CPU     12.31s WALL (    7024 calls)
     add_vuspsi   :      0.14s CPU      0.15s WALL (    7024 calls)

     General routines
     calbec       :      0.63s CPU      0.63s WALL (    7024 calls)
     fft          :      0.01s CPU      0.08s WALL (      23 calls)
     ffts         :      0.00s CPU      0.00s WALL (       2 calls)
     fftw         :     11.06s CPU     11.19s WALL (  343196 calls)
     interpolate  :      0.00s CPU      0.00s WALL (       2 calls)
     davcio       :      0.01s CPU     12.83s WALL (     402 calls)

     Parallel routines
     fft_scatter  :      7.21s CPU      6.80s WALL (  343221 calls)

     PAW routines
     PAW_pot      :      0.15s CPU      0.17s WALL (       1 calls)

     PWSCF        :  0m56.53s CPU     1m41.48s WALL


   This run was terminated on:  22: 1:43  11Jan2017            

=------------------------------------------------------------------------------=
   JOB DONE.
=------------------------------------------------------------------------------=
